 Entering Gaussian System, Link 0=g09
 Initial command:
 /ichec/packages/gaussian/09e01/l1.exe "/scratch/global/Gau-72352.inp" -scrdir="/scratch/global/"
 Entering Link 1 = /ichec/packages/gaussian/09e01/l1.exe PID=     72353.
  
 Copyright (c) 1988,1990,1992,1993,1995,1998,2003,2009,2015,
            Gaussian, Inc.  All Rights Reserved.
  
 This is part of the Gaussian(R) 09 program.  It is based on
 the Gaussian(R) 03 system (copyright 2003, Gaussian, Inc.),
 the Gaussian(R) 98 system (copyright 1998, Gaussian, Inc.),
 the Gaussian(R) 94 system (copyright 1995, Gaussian, Inc.),
 the Gaussian 92(TM) system (copyright 1992, Gaussian, Inc.),
 the Gaussian 90(TM) system (copyright 1990, Gaussian, Inc.),
 the Gaussian 88(TM) system (copyright 1988, Gaussian, Inc.),
 the Gaussian 86(TM) system (copyright 1986, Carnegie Mellon
 University), and the Gaussian 82(TM) system (copyright 1983,
 Carnegie Mellon University). Gaussian is a federally registered
 trademark of Gaussian, Inc.
  
 This software contains proprietary and confidential information,
 including trade secrets, belonging to Gaussian, Inc.
  
 This software is provided under written license and may be
 used, copied, transmitted, or stored only in accord with that
 written license.
  
 The following legend is applicable only to US Government
 contracts under FAR:
  
                    RESTRICTED RIGHTS LEGEND
  
 Use, reproduction and disclosure by the US Government is
 subject to restrictions as set forth in subparagraphs (a)
 and (c) of the Commercial Computer Software - Restricted
 Rights clause in FAR 52.227-19.
  
 Gaussian, Inc.
 340 Quinnipiac St., Bldg. 40, Wallingford CT 06492
  
  
 ---------------------------------------------------------------
 Warning -- This program may not be used in any manner that
 competes with the business of Gaussian, Inc. or will provide
 assistance to any competitor of Gaussian, Inc.  The licensee
 of this program is prohibited from giving any competitor of
 Gaussian, Inc. access to this program.  By using this program,
 the user acknowledges that Gaussian, Inc. is engaged in the
 business of creating and licensing software in the field of
 computational chemistry and represents and warrants to the
 licensee that it is not a competitor of Gaussian, Inc. and that
 it will not use this program in any manner prohibited above.
 ---------------------------------------------------------------
  

 Cite this work as:
 Gaussian 09, Revision E.01,
 M. J. Frisch, G. W. Trucks, H. B. Schlegel, G. E. Scuseria, 
 M. A. Robb, J. R. Cheeseman, G. Scalmani, V. Barone, B. Mennucci, 
 G. A. Petersson, H. Nakatsuji, M. Caricato, X. Li, H. P. Hratchian, 
 A. F. Izmaylov, J. Bloino, G. Zheng, J. L. Sonnenberg, M. Hada, 
 M. Ehara, K. Toyota, R. Fukuda, J. Hasegawa, M. Ishida, T. Nakajima, 
 Y. Honda, O. Kitao, H. Nakai, T. Vreven, J. A. Montgomery, Jr., 
 J. E. Peralta, F. Ogliaro, M. Bearpark, J. J. Heyd, E. Brothers, 
 K. N. Kudin, V. N. Staroverov, T. Keith, R. Kobayashi, J. Normand, 
 K. Raghavachari, A. Rendell, J. C. Burant, S. S. Iyengar, J. Tomasi, 
 M. Cossi, N. Rega, J. M. Millam, M. Klene, J. E. Knox, J. B. Cross, 
 V. Bakken, C. Adamo, J. Jaramillo, R. Gomperts, R. E. Stratmann, 
 O. Yazyev, A. J. Austin, R. Cammi, C. Pomelli, J. W. Ochterski, 
 R. L. Martin, K. Morokuma, V. G. Zakrzewski, G. A. Voth, 
 P. Salvador, J. J. Dannenberg, S. Dapprich, A. D. Daniels, 
 O. Farkas, J. B. Foresman, J. V. Ortiz, J. Cioslowski, 
 and D. J. Fox, Gaussian, Inc., Wallingford CT, 2013.
 
 ******************************************
 Gaussian 09:  ES64L-G09RevE.01 30-Nov-2015
                12-Oct-2021 
 ******************************************
 %mem=140GB
 %nprocshared=40
 Will use up to   40 processors via shared memory.
 ---------------------------------------------------
 # opt freq b3lyp/6-31+g(d,p) scrf=(smd,solvent=THF)
 ---------------------------------------------------
 1/14=-1,18=20,19=15,26=3,38=1/1,3;
 2/9=110,12=2,17=6,18=5,40=1/2;
 3/5=1,6=6,7=111,11=2,16=1,25=1,30=1,70=32201,71=1,72=20,74=-5/1,2,3;
 4//1;
 5/5=2,38=5,53=20/2;
 6/7=2,8=2,9=2,10=2,28=1/1;
 7//1,2,3,16;
 1/14=-1,18=20,19=15,26=3/3(2);
 2/9=110/2;
 99//99;
 2/9=110/2;
 3/5=1,6=6,7=111,11=2,16=1,25=1,30=1,70=32205,71=1,72=20,74=-5/1,2,3;
 4/5=5,16=3,69=1/1;
 5/5=2,38=5,53=20/2;
 7//1,2,3,16;
 1/14=-1,18=20,19=15,26=3/3(-5);
 2/9=110/2;
 6/7=2,8=2,9=2,10=2,19=2,28=1/1;
 99/9=1/99;
 -------------------
 cl(-)...H3C-cl (ts)
 -------------------
 Symbolic Z-matrix:
 Charge =  0 Multiplicity = 1
 C                     0.78717   1.62183   0.00592 
 H                     1.87331   1.77754   0.00372 
 H                     0.37073   2.11135  -0.87983 
 H                     0.376     2.10003   0.90027 
 C                     0.52552   0.13294  -0.0028 
 H                     0.90583  -0.35757  -0.89758 
 H                     0.91089  -0.36906   0.8834 
 Br                   -1.43038  -0.27436  -0.00039 
 

 GradGradGradGradGradGradGradGradGradGradGradGradGradGradGradGradGradGrad
 Berny optimization.
 Initialization pass.
                           ----------------------------
                           !    Initial Parameters    !
                           ! (Angstroms and Degrees)  !
 --------------------------                            --------------------------
 ! Name  Definition              Value          Derivative Info.                !
 --------------------------------------------------------------------------------
 ! R1    R(1,2)                  1.0972         estimate D2E/DX2                !
 ! R2    R(1,3)                  1.0943         estimate D2E/DX2                !
 ! R3    R(1,4)                  1.0944         estimate D2E/DX2                !
 ! R4    R(1,5)                  1.5117         estimate D2E/DX2                !
 ! R5    R(5,6)                  1.089          estimate D2E/DX2                !
 ! R6    R(5,7)                  1.089          estimate D2E/DX2                !
 ! R7    R(5,8)                  1.9979         estimate D2E/DX2                !
 ! A1    A(2,1,3)              108.1548         estimate D2E/DX2                !
 ! A2    A(2,1,4)              108.1515         estimate D2E/DX2                !
 ! A3    A(2,1,5)              108.1248         estimate D2E/DX2                !
 ! A4    A(3,1,4)              108.8454         estimate D2E/DX2                !
 ! A5    A(3,1,5)              111.7177         estimate D2E/DX2                !
 ! A6    A(4,1,5)              111.7193         estimate D2E/DX2                !
 ! A7    A(1,5,6)              112.8251         estimate D2E/DX2                !
 ! A8    A(1,5,7)              112.8348         estimate D2E/DX2                !
 ! A9    A(1,5,8)              111.7298         estimate D2E/DX2                !
 ! A10   A(6,5,7)              109.721          estimate D2E/DX2                !
 ! A11   A(6,5,8)              104.5404         estimate D2E/DX2                !
 ! A12   A(7,5,8)              104.5655         estimate D2E/DX2                !
 ! D1    D(2,1,5,6)            -62.5278         estimate D2E/DX2                !
 ! D2    D(2,1,5,7)             62.5343         estimate D2E/DX2                !
 ! D3    D(2,1,5,8)           -179.9776         estimate D2E/DX2                !
 ! D4    D(3,1,5,6)             56.3721         estimate D2E/DX2                !
 ! D5    D(3,1,5,7)           -178.5658         estimate D2E/DX2                !
 ! D6    D(3,1,5,8)            -61.0777         estimate D2E/DX2                !
 ! D7    D(4,1,5,6)            178.5754         estimate D2E/DX2                !
 ! D8    D(4,1,5,7)            -56.3625         estimate D2E/DX2                !
 ! D9    D(4,1,5,8)             61.1256         estimate D2E/DX2                !
 --------------------------------------------------------------------------------
 Trust Radius=3.00D-01 FncErr=1.00D-07 GrdErr=1.00D-06
 Number of steps in this run=     38 maximum allowed number of steps=    100.
 GradGradGradGradGradGradGradGradGradGradGradGradGradGradGradGradGradGrad

                          Input orientation:                          
 ---------------------------------------------------------------------
 Center     Atomic      Atomic             Coordinates (Angstroms)
 Number     Number       Type             X           Y           Z
 ---------------------------------------------------------------------
      1          6           0        0.787167    1.621825    0.005915
      2          1           0        1.873308    1.777542    0.003724
      3          1           0        0.370729    2.111352   -0.879825
      4          1           0        0.375999    2.100034    0.900270
      5          6           0        0.525517    0.132942   -0.002803
      6          1           0        0.905826   -0.357567   -0.897580
      7          1           0        0.910886   -0.369057    0.883399
      8         35           0       -1.430377   -0.274363   -0.000392
 ---------------------------------------------------------------------
                    Distance matrix (angstroms):
                    1          2          3          4          5
     1  C    0.000000
     2  H    1.097249   0.000000
     3  H    1.094346   1.774776   0.000000
     4  H    1.094355   1.774748   1.780139   0.000000
     5  C    1.511724   2.126333   2.169616   2.169642   0.000000
     6  H    2.179077   2.511386   2.526303   3.090758   1.088972
     7  H    2.179196   2.511568   3.090818   2.526420   1.088975
     8  Br   2.917717   3.889044   3.115930   3.116400   1.997855
                    6          7          8
     6  H    0.000000
     7  H    1.781023   0.000000
     8  Br   2.503940   2.504309   0.000000
 Stoichiometry    C2H5Br
 Framework group  C1[X(C2H5Br)]
 Deg. of freedom    18
 Full point group                 C1      NOp   1
 Largest Abelian subgroup         C1      NOp   1
 Largest concise Abelian subgroup C1      NOp   1
                         Standard orientation:                         
 ---------------------------------------------------------------------
 Center     Atomic      Atomic             Coordinates (Angstroms)
 Number     Number       Type             X           Y           Z
 ---------------------------------------------------------------------
      1          6           0       -2.094103   -0.403501    0.000007
      2          1           0       -3.082477    0.073020   -0.000397
      3          1           0       -2.020222   -1.036167   -0.889862
      4          1           0       -2.020778   -1.035685    0.890276
      5          6           0       -1.046541    0.686418    0.000013
      6          1           0       -1.087392    1.311604   -0.890680
      7          1           0       -1.087679    1.312106    0.890343
      8         35           0        0.804069   -0.066354    0.000006
 ---------------------------------------------------------------------
 Rotational constants (GHZ):     30.1570147      3.6701807      3.4131923
 Standard basis: 6-31+G(d,p) (6D, 7F)
 There are    97 symmetry adapted cartesian basis functions of A   symmetry.
 There are    97 symmetry adapted basis functions of A   symmetry.
    97 basis functions,   186 primitive gaussians,    97 cartesian basis functions
    26 alpha electrons       26 beta electrons
       nuclear repulsion energy       161.9893766945 Hartrees.
 NAtoms=    8 NActive=    8 NUniq=    8 SFac= 1.00D+00 NAtFMM=   60 NAOKFM=F Big=F
 Integral buffers will be    131072 words long.
 Raffenetti 2 integral format.
 Two-electron integral symmetry is turned on.
 ------------------------------------------------------------------------------
 Polarizable Continuum Model (PCM)
 =================================
 Model                : PCM (using non-symmetric T matrix).
 Atomic radii         : SMD-Coulomb.
 Polarization charges : Total charges.
 Charge compensation  : None.
 Solution method      : On-the-fly selection.
 Cavity type          : VdW (van der Waals Surface) (Alpha=1.000).
 Cavity algorithm     : GePol (No added spheres)
                        Default sphere list used, NSphG=    8.
                        Lebedev-Laikov grids with approx.  5.0 points / Ang**2.
                        Smoothing algorithm: York/Karplus (Gamma=1.0000).
                        Polarization charges: spherical gaussians, with
                                              point-specific exponents (IZeta= 3).
                        Self-potential: point-specific (ISelfS= 7).
                        Self-field    : sphere-specific E.n sum rule (ISelfD= 2).
 1st derivatives      : Analytical E(r).r(x)/FMM algorithm (CHGder, D1EAlg=3).
                        Cavity 1st derivative terms included.
 Solvent              : TetraHydroFuran, Eps=   7.425700 Eps(inf)=   1.974025
 ------------------------------------------------------------------------------
 Spheres list:
 ISph  on   Nord     Re0    Alpha      Xe            Ye            Ze
    1   C      1    1.8500  1.000     -2.094103     -0.403501      0.000007
    2   H      2    1.2000  1.000     -3.082477      0.073020     -0.000397
    3   H      3    1.2000  1.000     -2.020222     -1.036167     -0.889862
    4   H      4    1.2000  1.000     -2.020778     -1.035685      0.890276
    5   C      5    1.8500  1.000     -1.046541      0.686418      0.000013
    6   H      6    1.2000  1.000     -1.087392      1.311604     -0.890680
    7   H      7    1.2000  1.000     -1.087679      1.312106      0.890343
    8  Br      8    3.0600  1.000      0.804069     -0.066354      0.000006
 ------------------------------------------------------------------------------
 ------------------------------------------------------------------------------
 Atomic radii for non-electrostatic terms: SMD-CDS.
 ------------------------------------------------------------------------------
 Nuclear repulsion after PCM non-electrostatic terms =      161.9861892731 Hartrees.
 One-electron integrals computed using PRISM.
 NBasis=    97 RedAO= T EigKep=  2.83D-04  NBF=    97
 NBsUse=    97 1.00D-06 EigRej= -1.00D+00 NBFU=    97
 ExpMin= 3.50D-02 ExpMax= 5.74D+05 ExpMxC= 5.74D+03 IAcc=3 IRadAn=         5 AccDes= 0.00D+00
 Harris functional with IExCor=  402 and IRadAn=       5 diagonalized for initial guess.
 HarFok:  IExCor=  402 AccDes= 0.00D+00 IRadAn=         5 IDoV= 1 UseB2=F ITyADJ=14
 ICtDFT=  3500011 ScaDFX=  1.000000  1.000000  1.000000  1.000000
 FoFCou: FMM=F IPFlag=           0 FMFlag=      100000 FMFlg1=           0
         NFxFlg=           0 DoJE=T BraDBF=F KetDBF=T FulRan=T
         wScrn=  0.000000 ICntrl=     500 IOpCl=  0 I1Cent=   200000004 NGrid=           0
         NMat0=    1 NMatS0=      1 NMatT0=    0 NMatD0=    1 NMtDS0=    0 NMtDT0=    0
 Petite list used in FoFCou.
 Keep R1 ints in memory in canonical form, NReq=15178386.
 Requested convergence on RMS density matrix=1.00D-08 within 128 cycles.
 Requested convergence on MAX density matrix=1.00D-06.
 Requested convergence on             energy=1.00D-06.
 No special actions if energy rises.
 Inv3:  Mode=1 IEnd=     2302128.
 Iteration    1 A*A^-1 deviation from unit magnitude is 2.89D-15 for    349.
 Iteration    1 A*A^-1 deviation from orthogonality  is 2.82D-15 for    337    111.
 Iteration    1 A^-1*A deviation from unit magnitude is 2.00D-15 for    124.
 Iteration    1 A^-1*A deviation from orthogonality  is 1.64D-15 for    299    254.
 EnCoef did   100 forward-backward iterations
 Error on total polarization charges =  0.01575
 SCF Done:  E(RB3LYP) =  -2650.96682581     A.U. after   11 cycles
            NFock= 11  Conv=0.27D-08     -V/T= 2.0064
 SMD-CDS (non-electrostatic) energy       (kcal/mol) =      -2.00
 (included in total energy above)

 **********************************************************************

            Population analysis using the SCF density.

 **********************************************************************

 Orbital symmetries:
       Occupied  (A) (A) (A) (A) (A) (A) (A) (A) (A) (A) (A) (A)
                 (A) (A) (A) (A) (A) (A) (A) (A) (A) (A) (A) (A)
                 (A) (A)
       Virtual   (A) (A) (A) (A) (A) (A) (A) (A) (A) (A) (A) (A)
                 (A) (A) (A) (A) (A) (A) (A) (A) (A) (A) (A) (A)
                 (A) (A) (A) (A) (A) (A) (A) (A) (A) (A) (A) (A)
                 (A) (A) (A) (A) (A) (A) (A) (A) (A) (A) (A) (A)
                 (A) (A) (A) (A) (A) (A) (A) (A) (A) (A) (A) (A)
                 (A) (A) (A) (A) (A) (A) (A) (A) (A) (A) (A)
 The electronic state is 1-A.
 Alpha  occ. eigenvalues -- -482.90530 -61.86637 -56.38405 -56.38063 -56.38056
 Alpha  occ. eigenvalues --  -10.24043 -10.18645  -8.57401  -6.52598  -6.51446
 Alpha  occ. eigenvalues --   -6.51436  -2.64163  -2.63842  -2.63835  -2.62915
 Alpha  occ. eigenvalues --   -2.62915  -0.80805  -0.72315  -0.61192  -0.46601
 Alpha  occ. eigenvalues --   -0.43425  -0.39933  -0.36701  -0.34564  -0.27572
 Alpha  occ. eigenvalues --   -0.27448
 Alpha virt. eigenvalues --   -0.01576   0.00919   0.03287   0.04556   0.04969
 Alpha virt. eigenvalues --    0.06935   0.07800   0.07866   0.08620   0.09375
 Alpha virt. eigenvalues --    0.11824   0.13522   0.14655   0.19327   0.20401
 Alpha virt. eigenvalues --    0.22252   0.24626   0.30826   0.35161   0.45312
 Alpha virt. eigenvalues --    0.47666   0.47756   0.48983   0.50944   0.55164
 Alpha virt. eigenvalues --    0.60466   0.61199   0.62431   0.64598   0.65803
 Alpha virt. eigenvalues --    0.71772   0.77495   0.77650   0.88925   0.91683
 Alpha virt. eigenvalues --    0.95600   1.01084   1.06619   1.10176   1.18726
 Alpha virt. eigenvalues --    1.36547   1.42698   1.51609   1.65604   1.70331
 Alpha virt. eigenvalues --    1.80815   1.90938   2.04278   2.06787   2.07672
 Alpha virt. eigenvalues --    2.10842   2.11316   2.23831   2.34793   2.38232
 Alpha virt. eigenvalues --    2.45219   2.58114   2.63428   2.72470   2.80883
 Alpha virt. eigenvalues --    2.85702   2.88679   3.24633   3.28613   3.40314
 Alpha virt. eigenvalues --    3.45702   3.50962   4.31568   4.55639   8.83091
 Alpha virt. eigenvalues --   77.09551
          Condensed to atoms (all electrons):
               1          2          3          4          5          6
     1  C    5.168603   0.385801   0.412958   0.412945   0.224321  -0.033516
     2  H    0.385801   0.530920  -0.025301  -0.025305  -0.042957  -0.002247
     3  H    0.412958  -0.025301   0.521119  -0.027692  -0.049790  -0.005128
     4  H    0.412945  -0.025305  -0.027692   0.521120  -0.049783   0.004233
     5  C    0.224321  -0.042957  -0.049790  -0.049783   5.139645   0.387869
     6  H   -0.033516  -0.002247  -0.005128   0.004233   0.387869   0.526273
     7  H   -0.033489  -0.002242   0.004232  -0.005128   0.387830  -0.031791
     8  Br  -0.090941   0.009801  -0.002625  -0.002621   0.241325  -0.042169
               7          8
     1  C   -0.033489  -0.090941
     2  H   -0.002242   0.009801
     3  H    0.004232  -0.002625
     4  H   -0.005128  -0.002621
     5  C    0.387830   0.241325
     6  H   -0.031791  -0.042169
     7  H    0.526233  -0.042126
     8  Br  -0.042126  35.153161
 Mulliken charges:
               1
     1  C   -0.446682
     2  H    0.171531
     3  H    0.172228
     4  H    0.172230
     5  C   -0.238460
     6  H    0.196476
     7  H    0.196482
     8  Br  -0.223805
 Sum of Mulliken charges =  -0.00000
 Mulliken charges with hydrogens summed into heavy atoms:
               1
     1  C    0.069307
     5  C    0.154498
     8  Br  -0.223805
 Electronic spatial extent (au):  <R**2>=            385.6996
 Charge=             -0.0000 electrons
 Dipole moment (field-independent basis, Debye):
    X=             -2.8444    Y=              0.9184    Z=             -0.0002  Tot=              2.9890
 Quadrupole moment (field-independent basis, Debye-Ang):
   XX=            -30.0743   YY=            -32.0584   ZZ=            -32.6891
   XY=             -1.4642   XZ=             -0.0003   YZ=              0.0004
 Traceless Quadrupole moment (field-independent basis, Debye-Ang):
   XX=              1.5329   YY=             -0.4511   ZZ=             -1.0818
   XY=             -1.4642   XZ=             -0.0003   YZ=              0.0004
 Octapole moment (field-independent basis, Debye-Ang**2):
  XXX=             19.2181  YYY=              0.4499  ZZZ=             -0.0002  XYY=              5.6830
  XXY=             -0.7710  XXZ=             -0.0002  XZZ=              5.5479  YZZ=              0.4129
  YYZ=              0.0003  XYZ=             -0.0002
 Hexadecapole moment (field-independent basis, Debye-Ang**3):
 XXXX=           -352.9318 YYYY=            -85.5315 ZZZZ=            -54.8985 XXXY=             -9.5512
 XXXZ=              0.0008 YYYX=             -4.5649 YYYZ=              0.0035 ZZZX=             -0.0015
 ZZZY=             -0.0007 XXYY=            -75.2982 XXZZ=            -71.7686 YYZZ=            -20.9391
 XXYZ=             -0.0002 YYXZ=             -0.0011 ZZXY=             -1.1005
 N-N= 1.619861892731D+02 E-N=-6.640280003071D+03  KE= 2.634092944323D+03
 D1PCM: PCM CHGder 1st derivatives, ID1Alg=3 FixD1E=F DoIter=F DoCFld=F I1PDM=0.
 Calling FoFJK, ICntrl=      2127 FMM=F ISym2X=0 I1Cent= 0 IOpClX= 0 NMat=1 NMatS=1 NMatT=0.
 ***** Axes restored to original set *****
 -------------------------------------------------------------------
 Center     Atomic                   Forces (Hartrees/Bohr)
 Number     Number              X              Y              Z
 -------------------------------------------------------------------
      1        6           0.000029031    0.000029624    0.000015803
      2        1           0.000412246    0.000476514    0.000000430
      3        1           0.000181904    0.000053127    0.000278122
      4        1           0.000176207    0.000053975   -0.000282726
      5        6          -0.001052197   -0.000052628   -0.000034245
      6        1           0.000255132   -0.000160792   -0.000541543
      7        1           0.000230262   -0.000164547    0.000546975
      8       35          -0.000232585   -0.000235272    0.000017185
 -------------------------------------------------------------------
 Cartesian Forces:  Max     0.001052197 RMS     0.000329801

 GradGradGradGradGradGradGradGradGradGradGradGradGradGradGradGradGradGrad
 Berny optimization.
 FormGI is forming the generalized inverse of G from B-inverse, IUseBI=4.
 Internal  Forces:  Max     0.000752455 RMS     0.000332872
 Search for a local minimum.
 Step number   1 out of a maximum of   38
 All quantities printed in internal units (Hartrees-Bohrs-Radians)
 Mixed Optimization -- En-DIIS/RFO-DIIS
 Second derivative matrix not updated -- first step.
 ITU=  0
     Eigenvalues ---    0.00611   0.05493   0.05547   0.05624   0.05985
     Eigenvalues ---    0.14198   0.16000   0.16000   0.16000   0.16000
     Eigenvalues ---    0.16000   0.22189   0.31178   0.33988   0.34314
     Eigenvalues ---    0.34315   0.34931   0.34932
 RFO step:  Lambda=-1.35790114D-05 EMin= 6.10862000D-03
 Linear search not attempted -- first point.
 Iteration  1 RMS(Cart)=  0.00247768 RMS(Int)=  0.00000290
 Iteration  2 RMS(Cart)=  0.00000267 RMS(Int)=  0.00000149
 Iteration  3 RMS(Cart)=  0.00000000 RMS(Int)=  0.00000149
 Variable       Old X    -DE/DX   Delta X   Delta X   Delta X     New X
                                 (Linear)    (Quad)   (Total)
    R1        2.07350   0.00046   0.00000   0.00136   0.00136   2.07486
    R2        2.06801  -0.00026   0.00000  -0.00076  -0.00076   2.06725
    R3        2.06803  -0.00027   0.00000  -0.00077  -0.00077   2.06726
    R4        2.85674   0.00075   0.00000   0.00241   0.00241   2.85916
    R5        2.05786   0.00061   0.00000   0.00175   0.00175   2.05961
    R6        2.05786   0.00061   0.00000   0.00174   0.00174   2.05960
    R7        3.77540   0.00026   0.00000   0.00184   0.00184   3.77724
    A1        1.88766  -0.00033   0.00000  -0.00172  -0.00172   1.88594
    A2        1.88760  -0.00032   0.00000  -0.00168  -0.00168   1.88592
    A3        1.88713   0.00058   0.00000   0.00398   0.00398   1.89111
    A4        1.89971  -0.00020   0.00000  -0.00184  -0.00184   1.89787
    A5        1.94984   0.00012   0.00000   0.00058   0.00057   1.95042
    A6        1.94987   0.00012   0.00000   0.00056   0.00056   1.95043
    A7        1.96917  -0.00026   0.00000  -0.00161  -0.00161   1.96756
    A8        1.96934  -0.00027   0.00000  -0.00180  -0.00180   1.96754
    A9        1.95005   0.00069   0.00000   0.00345   0.00346   1.95351
   A10        1.91499   0.00018   0.00000   0.00015   0.00014   1.91514
   A11        1.82457  -0.00014   0.00000   0.00027   0.00027   1.82485
   A12        1.82501  -0.00017   0.00000  -0.00018  -0.00018   1.82484
    D1       -1.09132   0.00010   0.00000   0.00127   0.00127  -1.09005
    D2        1.09143  -0.00008   0.00000  -0.00129  -0.00128   1.09015
    D3       -3.14120  -0.00001   0.00000  -0.00036  -0.00036  -3.14156
    D4        0.98388   0.00014   0.00000   0.00203   0.00203   0.98591
    D5       -3.11656  -0.00004   0.00000  -0.00052  -0.00052  -3.11708
    D6       -1.06601   0.00003   0.00000   0.00041   0.00041  -1.06560
    D7        3.11673   0.00005   0.00000   0.00047   0.00047   3.11719
    D8       -0.98371  -0.00013   0.00000  -0.00209  -0.00209  -0.98580
    D9        1.06684  -0.00006   0.00000  -0.00116  -0.00116   1.06568
         Item               Value     Threshold  Converged?
 Maximum Force            0.000752     0.000450     NO 
 RMS     Force            0.000333     0.000300     NO 
 Maximum Displacement     0.007901     0.001800     NO 
 RMS     Displacement     0.002477     0.001200     NO 
 Predicted change in Energy=-6.788246D-06
 GradGradGradGradGradGradGradGradGradGradGradGradGradGradGradGradGradGrad

                          Input orientation:                          
 ---------------------------------------------------------------------
 Center     Atomic      Atomic             Coordinates (Angstroms)
 Number     Number       Type             X           Y           Z
 ---------------------------------------------------------------------
      1          6           0        0.788143    1.621960    0.005900
      2          1           0        1.874646    1.780191    0.003873
      3          1           0        0.372370    2.112752   -0.878952
      4          1           0        0.377369    2.101340    0.899308
      5          6           0        0.523652    0.132283   -0.002931
      6          1           0        0.905230   -0.357929   -0.898458
      7          1           0        0.910146   -0.369345    0.884123
      8         35           0       -1.432501   -0.278544   -0.000155
 ---------------------------------------------------------------------
                    Distance matrix (angstroms):
                    1          2          3          4          5
     1  C    0.000000
     2  H    1.097966   0.000000
     3  H    1.093941   1.773925   0.000000
     4  H    1.093946   1.773916   1.778304   0.000000
     5  C    1.513001   2.130922   2.170843   2.170857   0.000000
     6  H    2.179802   2.515060   2.527566   3.091700   1.089899
     7  H    2.179784   2.515076   3.091673   2.527522   1.089895
     8  Br   2.922877   3.895590   3.122201   3.122260   1.998830
                    6          7          8
     6  H    0.000000
     7  H    1.782624   0.000000
     8  Br   2.505641   2.505631   0.000000
 Stoichiometry    C2H5Br
 Framework group  C1[X(C2H5Br)]
 Deg. of freedom    18
 Full point group                 C1      NOp   1
 Largest Abelian subgroup         C1      NOp   1
 Largest concise Abelian subgroup C1      NOp   1
                         Standard orientation:                         
 ---------------------------------------------------------------------
 Center     Atomic      Atomic             Coordinates (Angstroms)
 Number     Number       Type             X           Y           Z
 ---------------------------------------------------------------------
      1          6           0       -2.098217   -0.402203   -0.000003
      2          1           0       -3.087760    0.073541   -0.000039
      3          1           0       -2.026409   -1.035444   -0.889135
      4          1           0       -2.026477   -1.035406    0.889169
      5          6           0       -1.046634    0.685613    0.000000
      6          1           0       -1.088105    1.311505   -0.891301
      7          1           0       -1.088107    1.311470    0.891323
      8         35           0        0.805313   -0.066461   -0.000000
 ---------------------------------------------------------------------
 Rotational constants (GHZ):     30.2097118      3.6584389      3.4036859
 Standard basis: 6-31+G(d,p) (6D, 7F)
 There are    97 symmetry adapted cartesian basis functions of A   symmetry.
 There are    97 symmetry adapted basis functions of A   symmetry.
    97 basis functions,   186 primitive gaussians,    97 cartesian basis functions
    26 alpha electrons       26 beta electrons
       nuclear repulsion energy       161.8333540223 Hartrees.
 NAtoms=    8 NActive=    8 NUniq=    8 SFac= 1.00D+00 NAtFMM=   60 NAOKFM=F Big=F
 Integral buffers will be    131072 words long.
 Raffenetti 2 integral format.
 Two-electron integral symmetry is turned on.
 ------------------------------------------------------------------------------
 Polarizable Continuum Model (PCM)
 =================================
 Model                : PCM (using non-symmetric T matrix).
 Atomic radii         : SMD-Coulomb.
 Polarization charges : Total charges.
 Charge compensation  : None.
 Solution method      : On-the-fly selection.
 Cavity type          : VdW (van der Waals Surface) (Alpha=1.000).
 Cavity algorithm     : GePol (No added spheres)
                        Default sphere list used, NSphG=    8.
                        Lebedev-Laikov grids with approx.  5.0 points / Ang**2.
                        Smoothing algorithm: York/Karplus (Gamma=1.0000).
                        Polarization charges: spherical gaussians, with
                                              point-specific exponents (IZeta= 3).
                        Self-potential: point-specific (ISelfS= 7).
                        Self-field    : sphere-specific E.n sum rule (ISelfD= 2).
 1st derivatives      : Analytical E(r).r(x)/FMM algorithm (CHGder, D1EAlg=3).
                        Cavity 1st derivative terms included.
 Solvent              : TetraHydroFuran, Eps=   7.425700 Eps(inf)=   1.974025
 ------------------------------------------------------------------------------
 Spheres list:
 ISph  on   Nord     Re0    Alpha      Xe            Ye            Ze
    1   C      1    1.8500  1.000     -2.098217     -0.402203     -0.000003
    2   H      2    1.2000  1.000     -3.087760      0.073541     -0.000039
    3   H      3    1.2000  1.000     -2.026409     -1.035444     -0.889135
    4   H      4    1.2000  1.000     -2.026477     -1.035406      0.889169
    5   C      5    1.8500  1.000     -1.046634      0.685613      0.000000
    6   H      6    1.2000  1.000     -1.088105      1.311505     -0.891301
    7   H      7    1.2000  1.000     -1.088107      1.311470      0.891323
    8  Br      8    3.0600  1.000      0.805313     -0.066461     -0.000000
 ------------------------------------------------------------------------------
 ------------------------------------------------------------------------------
 Atomic radii for non-electrostatic terms: SMD-CDS.
 ------------------------------------------------------------------------------
 Nuclear repulsion after PCM non-electrostatic terms =      161.8301644862 Hartrees.
 One-electron integrals computed using PRISM.
 NBasis=    97 RedAO= T EigKep=  2.84D-04  NBF=    97
 NBsUse=    97 1.00D-06 EigRej= -1.00D+00 NBFU=    97
 Initial guess from the checkpoint file:  "/scratch/global/Gau-72353.chk"
 B after Tr=     0.000000   -0.000000   -0.000000
         Rot=    1.000000   -0.000069   -0.000009    0.000201 Ang=  -0.02 deg.
 Keep R1 ints in memory in canonical form, NReq=15178330.
 Requested convergence on RMS density matrix=1.00D-08 within 128 cycles.
 Requested convergence on MAX density matrix=1.00D-06.
 Requested convergence on             energy=1.00D-06.
 No special actions if energy rises.
 Inv3:  Mode=1 IEnd=     2302128.
 Iteration    1 A*A^-1 deviation from unit magnitude is 2.66D-15 for    117.
 Iteration    1 A*A^-1 deviation from orthogonality  is 2.41D-15 for    349    117.
 Iteration    1 A^-1*A deviation from unit magnitude is 2.89D-15 for    833.
 Iteration    1 A^-1*A deviation from orthogonality  is 1.35D-15 for    299    254.
 Error on total polarization charges =  0.01577
 SCF Done:  E(RB3LYP) =  -2650.96683240     A.U. after    8 cycles
            NFock=  8  Conv=0.35D-08     -V/T= 2.0064
 SMD-CDS (non-electrostatic) energy       (kcal/mol) =      -2.00
 (included in total energy above)
 D1PCM: PCM CHGder 1st derivatives, ID1Alg=3 FixD1E=F DoIter=F DoCFld=F I1PDM=0.
 Calling FoFJK, ICntrl=      2127 FMM=F ISym2X=0 I1Cent= 0 IOpClX= 0 NMat=1 NMatS=1 NMatT=0.
 ***** Axes restored to original set *****
 -------------------------------------------------------------------
 Center     Atomic                   Forces (Hartrees/Bohr)
 Number     Number              X              Y              Z
 -------------------------------------------------------------------
      1        6          -0.000026779   -0.000176157    0.000000007
      2        1          -0.000017098   -0.000071937   -0.000001236
      3        1           0.000012971    0.000046825   -0.000036686
      4        1           0.000012232    0.000043259    0.000034651
      5        6          -0.000126675    0.000003860    0.000002003
      6        1          -0.000054967    0.000016985   -0.000008277
      7        1          -0.000053564    0.000014236    0.000009688
      8       35           0.000253880    0.000122928   -0.000000151
 -------------------------------------------------------------------
 Cartesian Forces:  Max     0.000253880 RMS     0.000078082

 GradGradGradGradGradGradGradGradGradGradGradGradGradGradGradGradGradGrad
 Berny optimization.
 Using GEDIIS/GDIIS optimizer.
 FormGI is forming the generalized inverse of G from B-inverse, IUseBI=4.
 Internal  Forces:  Max     0.000287953 RMS     0.000068064
 Search for a local minimum.
 Step number   2 out of a maximum of   38
 All quantities printed in internal units (Hartrees-Bohrs-Radians)
 Mixed Optimization -- En-DIIS/RFO-DIIS
 Swapping is turned off.
 Update second derivatives using D2CorX and points    1    2
 DE= -6.59D-06 DEPred=-6.79D-06 R= 9.70D-01
 TightC=F SS=  1.41D+00  RLast= 8.70D-03 DXNew= 5.0454D-01 2.6105D-02
 Trust test= 9.70D-01 RLast= 8.70D-03 DXMaxT set to 3.00D-01
 ITU=  1  0
     Eigenvalues ---    0.00611   0.05530   0.05605   0.05623   0.05957
     Eigenvalues ---    0.13879   0.15818   0.16000   0.16000   0.16000
     Eigenvalues ---    0.17017   0.22709   0.32210   0.34044   0.34314
     Eigenvalues ---    0.34442   0.34931   0.35380
 En-DIIS/RFO-DIIS IScMMF=        0 using points:     2    1
 RFO step:  Lambda=-2.86909776D-07.
 DidBck=F Rises=F RFO-DIIS coefs:    0.88744    0.11256
 Iteration  1 RMS(Cart)=  0.00039855 RMS(Int)=  0.00000018
 Iteration  2 RMS(Cart)=  0.00000003 RMS(Int)=  0.00000017
 Variable       Old X    -DE/DX   Delta X   Delta X   Delta X     New X
                                 (Linear)    (Quad)   (Total)
    R1        2.07486  -0.00004  -0.00015   0.00009  -0.00006   2.07479
    R2        2.06725   0.00005   0.00009   0.00003   0.00011   2.06736
    R3        2.06726   0.00005   0.00009   0.00002   0.00011   2.06736
    R4        2.85916  -0.00015  -0.00027  -0.00007  -0.00034   2.85882
    R5        2.05961  -0.00001  -0.00020   0.00022   0.00002   2.05963
    R6        2.05960  -0.00001  -0.00020   0.00022   0.00003   2.05963
    R7        3.77724  -0.00029  -0.00021  -0.00153  -0.00174   3.77551
    A1        1.88594   0.00001   0.00019  -0.00026  -0.00006   1.88588
    A2        1.88592   0.00001   0.00019  -0.00024  -0.00005   1.88587
    A3        1.89111  -0.00007  -0.00045   0.00014  -0.00031   1.89081
    A4        1.89787  -0.00002   0.00021  -0.00030  -0.00009   1.89778
    A5        1.95042   0.00004  -0.00006   0.00032   0.00025   1.95067
    A6        1.95043   0.00003  -0.00006   0.00030   0.00023   1.95067
    A7        1.96756  -0.00000   0.00018  -0.00021  -0.00003   1.96754
    A8        1.96754   0.00000   0.00020  -0.00021  -0.00001   1.96753
    A9        1.95351  -0.00007  -0.00039   0.00015  -0.00024   1.95327
   A10        1.91514   0.00003  -0.00002   0.00040   0.00038   1.91552
   A11        1.82485   0.00002  -0.00003  -0.00002  -0.00005   1.82480
   A12        1.82484   0.00002   0.00002  -0.00008  -0.00006   1.82478
    D1       -1.09005  -0.00002  -0.00014  -0.00012  -0.00027  -1.09031
    D2        1.09015   0.00002   0.00014   0.00007   0.00022   1.09036
    D3       -3.14156   0.00000   0.00004  -0.00006  -0.00002  -3.14158
    D4        0.98591  -0.00003  -0.00023  -0.00016  -0.00039   0.98552
    D5       -3.11708   0.00001   0.00006   0.00004   0.00010  -3.11699
    D6       -1.06560  -0.00001  -0.00005  -0.00010  -0.00015  -1.06574
    D7        3.11719  -0.00001  -0.00005  -0.00010  -0.00015   3.11704
    D8       -0.98580   0.00003   0.00023   0.00010   0.00033  -0.98547
    D9        1.06568   0.00001   0.00013  -0.00004   0.00009   1.06577
         Item               Value     Threshold  Converged?
 Maximum Force            0.000288     0.000450     YES
 RMS     Force            0.000068     0.000300     YES
 Maximum Displacement     0.001628     0.001800     YES
 RMS     Displacement     0.000399     0.001200     YES
 Predicted change in Energy=-3.310877D-07
 Optimization completed.
    -- Stationary point found.
                           ----------------------------
                           !   Optimized Parameters   !
                           ! (Angstroms and Degrees)  !
 --------------------------                            --------------------------
 ! Name  Definition              Value          Derivative Info.                !
 --------------------------------------------------------------------------------
 ! R1    R(1,2)                  1.098          -DE/DX =    0.0                 !
 ! R2    R(1,3)                  1.0939         -DE/DX =    0.0001              !
 ! R3    R(1,4)                  1.0939         -DE/DX =    0.0001              !
 ! R4    R(1,5)                  1.513          -DE/DX =   -0.0001              !
 ! R5    R(5,6)                  1.0899         -DE/DX =    0.0                 !
 ! R6    R(5,7)                  1.0899         -DE/DX =    0.0                 !
 ! R7    R(5,8)                  1.9988         -DE/DX =   -0.0003              !
 ! A1    A(2,1,3)              108.0563         -DE/DX =    0.0                 !
 ! A2    A(2,1,4)              108.0552         -DE/DX =    0.0                 !
 ! A3    A(2,1,5)              108.3528         -DE/DX =   -0.0001              !
 ! A4    A(3,1,4)              108.7398         -DE/DX =    0.0                 !
 ! A5    A(3,1,5)              111.7507         -DE/DX =    0.0                 !
 ! A6    A(4,1,5)              111.7515         -DE/DX =    0.0                 !
 ! A7    A(1,5,6)              112.733          -DE/DX =    0.0                 !
 ! A8    A(1,5,7)              112.7317         -DE/DX =    0.0                 !
 ! A9    A(1,5,8)              111.9277         -DE/DX =   -0.0001              !
 ! A10   A(6,5,7)              109.7293         -DE/DX =    0.0                 !
 ! A11   A(6,5,8)              104.556          -DE/DX =    0.0                 !
 ! A12   A(7,5,8)              104.5554         -DE/DX =    0.0                 !
 ! D1    D(2,1,5,6)            -62.4551         -DE/DX =    0.0                 !
 ! D2    D(2,1,5,7)             62.4607         -DE/DX =    0.0                 !
 ! D3    D(2,1,5,8)           -179.998          -DE/DX =    0.0                 !
 ! D4    D(3,1,5,6)             56.4885         -DE/DX =    0.0                 !
 ! D5    D(3,1,5,7)           -178.5957         -DE/DX =    0.0                 !
 ! D6    D(3,1,5,8)            -61.0544         -DE/DX =    0.0                 !
 ! D7    D(4,1,5,6)            178.6021         -DE/DX =    0.0                 !
 ! D8    D(4,1,5,7)            -56.4821         -DE/DX =    0.0                 !
 ! D9    D(4,1,5,8)             61.0592         -DE/DX =    0.0                 !
 --------------------------------------------------------------------------------
 GradGradGradGradGradGradGradGradGradGradGradGradGradGradGradGradGradGrad

                          Input orientation:                          
 ---------------------------------------------------------------------
 Center     Atomic      Atomic             Coordinates (Angstroms)
 Number     Number       Type             X           Y           Z
 ---------------------------------------------------------------------
      1          6           0        0.788143    1.621960    0.005900
      2          1           0        1.874646    1.780191    0.003873
      3          1           0        0.372370    2.112752   -0.878952
      4          1           0        0.377369    2.101340    0.899308
      5          6           0        0.523652    0.132283   -0.002931
      6          1           0        0.905230   -0.357929   -0.898458
      7          1           0        0.910146   -0.369345    0.884123
      8         35           0       -1.432501   -0.278544   -0.000155
 ---------------------------------------------------------------------
                    Distance matrix (angstroms):
                    1          2          3          4          5
     1  C    0.000000
     2  H    1.097966   0.000000
     3  H    1.093941   1.773925   0.000000
     4  H    1.093946   1.773916   1.778304   0.000000
     5  C    1.513001   2.130922   2.170843   2.170857   0.000000
     6  H    2.179802   2.515060   2.527566   3.091700   1.089899
     7  H    2.179784   2.515076   3.091673   2.527522   1.089895
     8  Br   2.922877   3.895590   3.122201   3.122260   1.998830
                    6          7          8
     6  H    0.000000
     7  H    1.782624   0.000000
     8  Br   2.505641   2.505631   0.000000
 Stoichiometry    C2H5Br
 Framework group  C1[X(C2H5Br)]
 Deg. of freedom    18
 Full point group                 C1      NOp   1
 Largest Abelian subgroup         C1      NOp   1
 Largest concise Abelian subgroup C1      NOp   1
                         Standard orientation:                         
 ---------------------------------------------------------------------
 Center     Atomic      Atomic             Coordinates (Angstroms)
 Number     Number       Type             X           Y           Z
 ---------------------------------------------------------------------
      1          6           0       -2.098217   -0.402203   -0.000003
      2          1           0       -3.087760    0.073541   -0.000039
      3          1           0       -2.026409   -1.035444   -0.889135
      4          1           0       -2.026477   -1.035406    0.889169
      5          6           0       -1.046634    0.685613    0.000000
      6          1           0       -1.088105    1.311505   -0.891301
      7          1           0       -1.088107    1.311470    0.891323
      8         35           0        0.805313   -0.066461   -0.000000
 ---------------------------------------------------------------------
 Rotational constants (GHZ):     30.2097118      3.6584389      3.4036859

 **********************************************************************

            Population analysis using the SCF density.

 **********************************************************************

 Orbital symmetries:
       Occupied  (A) (A) (A) (A) (A) (A) (A) (A) (A) (A) (A) (A)
                 (A) (A) (A) (A) (A) (A) (A) (A) (A) (A) (A) (A)
                 (A) (A)
       Virtual   (A) (A) (A) (A) (A) (A) (A) (A) (A) (A) (A) (A)
                 (A) (A) (A) (A) (A) (A) (A) (A) (A) (A) (A) (A)
                 (A) (A) (A) (A) (A) (A) (A) (A) (A) (A) (A) (A)
                 (A) (A) (A) (A) (A) (A) (A) (A) (A) (A) (A) (A)
                 (A) (A) (A) (A) (A) (A) (A) (A) (A) (A) (A) (A)
                 (A) (A) (A) (A) (A) (A) (A) (A) (A) (A) (A)
 The electronic state is 1-A.
 Alpha  occ. eigenvalues -- -482.90545 -61.86652 -56.38419 -56.38077 -56.38070
 Alpha  occ. eigenvalues --  -10.24076 -10.18653  -8.57414  -6.52611  -6.51459
 Alpha  occ. eigenvalues --   -6.51449  -2.64176  -2.63855  -2.63848  -2.62928
 Alpha  occ. eigenvalues --   -2.62928  -0.80765  -0.72316  -0.61191  -0.46571
 Alpha  occ. eigenvalues --   -0.43393  -0.39917  -0.36697  -0.34575  -0.27584
 Alpha  occ. eigenvalues --   -0.27454
 Alpha virt. eigenvalues --   -0.01604   0.00914   0.03284   0.04558   0.04963
 Alpha virt. eigenvalues --    0.06930   0.07799   0.07864   0.08631   0.09379
 Alpha virt. eigenvalues --    0.11809   0.13520   0.14660   0.19334   0.20391
 Alpha virt. eigenvalues --    0.22209   0.24578   0.30804   0.35145   0.45319
 Alpha virt. eigenvalues --    0.47664   0.47758   0.48973   0.50938   0.55148
 Alpha virt. eigenvalues --    0.60459   0.61194   0.62428   0.64630   0.65783
 Alpha virt. eigenvalues --    0.71709   0.77460   0.77638   0.88896   0.91693
 Alpha virt. eigenvalues --    0.95606   1.01061   1.06551   1.10176   1.18623
 Alpha virt. eigenvalues --    1.36561   1.42636   1.51571   1.65612   1.70292
 Alpha virt. eigenvalues --    1.80640   1.90726   2.04330   2.06753   2.07700
 Alpha virt. eigenvalues --    2.10893   2.11291   2.23762   2.34645   2.38252
 Alpha virt. eigenvalues --    2.45144   2.58008   2.63209   2.72651   2.80767
 Alpha virt. eigenvalues --    2.85661   2.88545   3.24562   3.28423   3.40286
 Alpha virt. eigenvalues --    3.45645   3.50889   4.31488   4.55585   8.83077
 Alpha virt. eigenvalues --   77.09482
          Condensed to atoms (all electrons):
               1          2          3          4          5          6
     1  C    5.169127   0.385530   0.412679   0.412679   0.224600  -0.033816
     2  H    0.385530   0.530605  -0.025353  -0.025355  -0.042317  -0.002227
     3  H    0.412679  -0.025353   0.521239  -0.027763  -0.049598  -0.005102
     4  H    0.412679  -0.025355  -0.027763   0.521238  -0.049595   0.004221
     5  C    0.224600  -0.042317  -0.049598  -0.049595   5.138122   0.387991
     6  H   -0.033816  -0.002227  -0.005102   0.004221   0.387991   0.526359
     7  H   -0.033817  -0.002227   0.004221  -0.005102   0.387990  -0.031713
     8  Br  -0.090561   0.009671  -0.002551  -0.002551   0.241948  -0.042087
               7          8
     1  C   -0.033817  -0.090561
     2  H   -0.002227   0.009671
     3  H    0.004221  -0.002551
     4  H   -0.005102  -0.002551
     5  C    0.387990   0.241948
     6  H   -0.031713  -0.042087
     7  H    0.526362  -0.042087
     8  Br  -0.042087  35.151533
 Mulliken charges:
               1
     1  C   -0.446421
     2  H    0.171673
     3  H    0.172227
     4  H    0.172228
     5  C   -0.239142
     6  H    0.196374
     7  H    0.196374
     8  Br  -0.223314
 Sum of Mulliken charges =  -0.00000
 Mulliken charges with hydrogens summed into heavy atoms:
               1
     1  C    0.069708
     5  C    0.153607
     8  Br  -0.223314
 Electronic spatial extent (au):  <R**2>=            386.5510
 Charge=             -0.0000 electrons
 Dipole moment (field-independent basis, Debye):
    X=             -2.8443    Y=              0.9152    Z=              0.0000  Tot=              2.9880
 Quadrupole moment (field-independent basis, Debye-Ang):
   XX=            -30.0461   YY=            -32.0675   ZZ=            -32.6951
   XY=             -1.4520   XZ=             -0.0000   YZ=             -0.0000
 Traceless Quadrupole moment (field-independent basis, Debye-Ang):
   XX=              1.5568   YY=             -0.4646   ZZ=             -1.0922
   XY=             -1.4520   XZ=             -0.0000   YZ=             -0.0000
 Octapole moment (field-independent basis, Debye-Ang**2):
  XXX=             19.1833  YYY=              0.4280  ZZZ=              0.0001  XYY=              5.6984
  XXY=             -0.8047  XXZ=              0.0001  XZZ=              5.5705  YZZ=              0.4146
  YYZ=             -0.0001  XYZ=              0.0001
 Hexadecapole moment (field-independent basis, Debye-Ang**3):
 XXXX=           -353.6451 YYYY=            -85.4887 ZZZZ=            -54.9092 XXXY=             -9.4409
 XXXZ=             -0.0002 YYYX=             -4.5388 YYYZ=             -0.0001 ZZZX=             -0.0003
 ZZZY=             -0.0000 XXYY=            -75.4711 XXZZ=            -71.9668 YYZZ=            -20.9320
 XXYZ=             -0.0003 YYXZ=              0.0000 ZZXY=             -1.1004
 N-N= 1.618301644862D+02 E-N=-6.639960670357D+03  KE= 2.634086392222D+03
 1\1\GINC-N2\FOpt\RB3LYP\6-31+G(d,p)\C2H5Br1\RICA\12-Oct-2021\0\\# opt 
 freq b3lyp/6-31+g(d,p) scrf=(smd,solvent=THF)\\cl(-)...H3C-cl (ts)\\0,
 1\C,0.7881426865,1.6219603258,0.0059002337\H,1.8746455503,1.7801910491
 ,0.0038728172\H,0.3723700231,2.1127522487,-0.8789521466\H,0.3773687715
 ,2.1013400673,0.8993082127\C,0.5236522641,0.1322828616,-0.0029306882\H
 ,0.9052303646,-0.3579294014,-0.8984578602\H,0.9101462252,-0.369345307,
 0.8841226383\Br,-1.4325008853,-0.2785438442,-0.0001552069\\Version=ES6
 4L-G09RevE.01\State=1-A\HF=-2650.9668324\RMSD=3.460e-09\RMSF=7.808e-05
 \Dipole=1.1293036,0.3265053,-0.0010245\Quadrupole=1.6887772,-0.8767656
 ,-0.8120117,0.2906629,-0.0050368,-0.0011854\PG=C01 [X(C2H5Br1)]\\@


 HE THAT WALD REACHE THE SWEITE ROSE
 SULD NOW AND THEN BE SCRATCHED WT THE SCHARPE BREERES.
 -- PROVERBS AND REASONS OF THE YEAR 1585
           AS REPRINTED IN PAISLEY MAGAZINE 1828.
 Job cpu time:       0 days  0 hours  9 minutes 55.8 seconds.
 File lengths (MBytes):  RWF=     20 Int=      0 D2E=      0 Chk=      2 Scr=      1
 Normal termination of Gaussian 09 at Tue Oct 12 11:09:16 2021.
 Link1:  Proceeding to internal job step number  2.
 ----------------------------------------------------------------------
 #N Geom=AllCheck Guess=TCheck SCRF=Check GenChk RB3LYP/6-31+G(d,p) Fre
 q
 ----------------------------------------------------------------------
 1/10=4,29=7,30=1,38=1,40=1/1,3;
 2/12=2,40=1/2;
 3/5=1,6=6,7=111,11=2,14=-4,16=1,25=1,30=1,70=2,71=2,72=20,74=-5,116=1,140=1/1,2,3;
 4/5=101/1;
 5/5=2,38=6,53=20,98=1/2;
 8/6=4,10=90,11=11/1;
 11/6=1,8=1,9=11,15=111,16=1/1,2,10;
 10/6=1/2;
 6/7=2,8=2,9=2,10=2,18=1,28=1/1;
 7/8=1,10=1,25=1/1,2,3,16;
 1/10=4,30=1/3;
 99//99;
 Structure from the checkpoint file:  "/scratch/global/Gau-72353.chk"
 -------------------
 cl(-)...H3C-cl (ts)
 -------------------
 Charge =  0 Multiplicity = 1
 Redundant internal coordinates found in file.
 C,0,0.7881426865,1.6219603258,0.0059002337
 H,0,1.8746455503,1.7801910491,0.0038728172
 H,0,0.3723700231,2.1127522487,-0.8789521466
 H,0,0.3773687715,2.1013400673,0.8993082127
 C,0,0.5236522641,0.1322828616,-0.0029306882
 H,0,0.9052303646,-0.3579294014,-0.8984578602
 H,0,0.9101462252,-0.369345307,0.8841226383
 Br,0,-1.4325008853,-0.2785438442,-0.0001552069
 Recover connectivity data from disk.

 GradGradGradGradGradGradGradGradGradGradGradGradGradGradGradGradGradGrad
 Berny optimization.
 Initialization pass.
                           ----------------------------
                           !    Initial Parameters    !
                           ! (Angstroms and Degrees)  !
 --------------------------                            --------------------------
 ! Name  Definition              Value          Derivative Info.                !
 --------------------------------------------------------------------------------
 ! R1    R(1,2)                  1.098          calculate D2E/DX2 analytically  !
 ! R2    R(1,3)                  1.0939         calculate D2E/DX2 analytically  !
 ! R3    R(1,4)                  1.0939         calculate D2E/DX2 analytically  !
 ! R4    R(1,5)                  1.513          calculate D2E/DX2 analytically  !
 ! R5    R(5,6)                  1.0899         calculate D2E/DX2 analytically  !
 ! R6    R(5,7)                  1.0899         calculate D2E/DX2 analytically  !
 ! R7    R(5,8)                  1.9988         calculate D2E/DX2 analytically  !
 ! A1    A(2,1,3)              108.0563         calculate D2E/DX2 analytically  !
 ! A2    A(2,1,4)              108.0552         calculate D2E/DX2 analytically  !
 ! A3    A(2,1,5)              108.3528         calculate D2E/DX2 analytically  !
 ! A4    A(3,1,4)              108.7398         calculate D2E/DX2 analytically  !
 ! A5    A(3,1,5)              111.7507         calculate D2E/DX2 analytically  !
 ! A6    A(4,1,5)              111.7515         calculate D2E/DX2 analytically  !
 ! A7    A(1,5,6)              112.733          calculate D2E/DX2 analytically  !
 ! A8    A(1,5,7)              112.7317         calculate D2E/DX2 analytically  !
 ! A9    A(1,5,8)              111.9277         calculate D2E/DX2 analytically  !
 ! A10   A(6,5,7)              109.7293         calculate D2E/DX2 analytically  !
 ! A11   A(6,5,8)              104.556          calculate D2E/DX2 analytically  !
 ! A12   A(7,5,8)              104.5554         calculate D2E/DX2 analytically  !
 ! D1    D(2,1,5,6)            -62.4551         calculate D2E/DX2 analytically  !
 ! D2    D(2,1,5,7)             62.4607         calculate D2E/DX2 analytically  !
 ! D3    D(2,1,5,8)           -179.998          calculate D2E/DX2 analytically  !
 ! D4    D(3,1,5,6)             56.4885         calculate D2E/DX2 analytically  !
 ! D5    D(3,1,5,7)           -178.5957         calculate D2E/DX2 analytically  !
 ! D6    D(3,1,5,8)            -61.0544         calculate D2E/DX2 analytically  !
 ! D7    D(4,1,5,6)            178.6021         calculate D2E/DX2 analytically  !
 ! D8    D(4,1,5,7)            -56.4821         calculate D2E/DX2 analytically  !
 ! D9    D(4,1,5,8)             61.0592         calculate D2E/DX2 analytically  !
 --------------------------------------------------------------------------------
 Trust Radius=3.00D-01 FncErr=1.00D-07 GrdErr=1.00D-07
 Number of steps in this run=      2 maximum allowed number of steps=      2.
 GradGradGradGradGradGradGradGradGradGradGradGradGradGradGradGradGradGrad

                          Input orientation:                          
 ---------------------------------------------------------------------
 Center     Atomic      Atomic             Coordinates (Angstroms)
 Number     Number       Type             X           Y           Z
 ---------------------------------------------------------------------
      1          6           0        0.788143    1.621960    0.005900
      2          1           0        1.874646    1.780191    0.003873
      3          1           0        0.372370    2.112752   -0.878952
      4          1           0        0.377369    2.101340    0.899308
      5          6           0        0.523652    0.132283   -0.002931
      6          1           0        0.905230   -0.357929   -0.898458
      7          1           0        0.910146   -0.369345    0.884123
      8         35           0       -1.432501   -0.278544   -0.000155
 ---------------------------------------------------------------------
                    Distance matrix (angstroms):
                    1          2          3          4          5
     1  C    0.000000
     2  H    1.097966   0.000000
     3  H    1.093941   1.773925   0.000000
     4  H    1.093946   1.773916   1.778304   0.000000
     5  C    1.513001   2.130922   2.170843   2.170857   0.000000
     6  H    2.179802   2.515060   2.527566   3.091700   1.089899
     7  H    2.179784   2.515076   3.091673   2.527522   1.089895
     8  Br   2.922877   3.895590   3.122201   3.122260   1.998830
                    6          7          8
     6  H    0.000000
     7  H    1.782624   0.000000
     8  Br   2.505641   2.505631   0.000000
 Stoichiometry    C2H5Br
 Framework group  C1[X(C2H5Br)]
 Deg. of freedom    18
 Full point group                 C1      NOp   1
 Largest Abelian subgroup         C1      NOp   1
 Largest concise Abelian subgroup C1      NOp   1
                         Standard orientation:                         
 ---------------------------------------------------------------------
 Center     Atomic      Atomic             Coordinates (Angstroms)
 Number     Number       Type             X           Y           Z
 ---------------------------------------------------------------------
      1          6           0       -2.098217   -0.402203   -0.000003
      2          1           0       -3.087760    0.073541   -0.000039
      3          1           0       -2.026409   -1.035444   -0.889135
      4          1           0       -2.026477   -1.035406    0.889169
      5          6           0       -1.046634    0.685613    0.000000
      6          1           0       -1.088105    1.311505   -0.891301
      7          1           0       -1.088107    1.311470    0.891323
      8         35           0        0.805313   -0.066461   -0.000000
 ---------------------------------------------------------------------
 Rotational constants (GHZ):     30.2097118      3.6584389      3.4036859
 Standard basis: 6-31+G(d,p) (6D, 7F)
 There are    97 symmetry adapted cartesian basis functions of A   symmetry.
 There are    97 symmetry adapted basis functions of A   symmetry.
    97 basis functions,   186 primitive gaussians,    97 cartesian basis functions
    26 alpha electrons       26 beta electrons
       nuclear repulsion energy       161.8333540223 Hartrees.
 NAtoms=    8 NActive=    8 NUniq=    8 SFac= 1.00D+00 NAtFMM=   60 NAOKFM=F Big=F
 Integral buffers will be    131072 words long.
 Raffenetti 2 integral format.
 Two-electron integral symmetry is turned on.
 Force inversion solution in PCM.
 ------------------------------------------------------------------------------
 Polarizable Continuum Model (PCM)
 =================================
 Model                : PCM (using non-symmetric T matrix).
 Atomic radii         : SMD-Coulomb.
 Polarization charges : Total charges.
 Charge compensation  : None.
 Solution method      : Matrix inversion.
 Cavity type          : VdW (van der Waals Surface) (Alpha=1.000).
 Cavity algorithm     : GePol (No added spheres)
                        Default sphere list used, NSphG=    8.
                        Lebedev-Laikov grids with approx.  5.0 points / Ang**2.
                        Smoothing algorithm: York/Karplus (Gamma=1.0000).
                        Polarization charges: spherical gaussians, with
                                              point-specific exponents (IZeta= 3).
                        Self-potential: point-specific (ISelfS= 7).
                        Self-field    : sphere-specific E.n sum rule (ISelfD= 2).
 1st derivatives      : Analytical E(r).r(x)/FMM algorithm (CHGder, D1EAlg=3).
                        Cavity 1st derivative terms included.
 2nd derivatives      : Analytical E(r).r(xy)/FMM algorithm (CHGder, D2EAlg=3).
                        Cavity 2nd derivative terms included.
 Solvent              : TetraHydroFuran, Eps=   7.425700 Eps(inf)=   1.974025
 ------------------------------------------------------------------------------
 Spheres list:
 ISph  on   Nord     Re0    Alpha      Xe            Ye            Ze
    1   C      1    1.8500  1.000     -2.098217     -0.402203     -0.000003
    2   H      2    1.2000  1.000     -3.087760      0.073541     -0.000039
    3   H      3    1.2000  1.000     -2.026409     -1.035444     -0.889135
    4   H      4    1.2000  1.000     -2.026477     -1.035406      0.889169
    5   C      5    1.8500  1.000     -1.046634      0.685613      0.000000
    6   H      6    1.2000  1.000     -1.088105      1.311505     -0.891301
    7   H      7    1.2000  1.000     -1.088107      1.311470      0.891323
    8  Br      8    3.0600  1.000      0.805313     -0.066461     -0.000000
 ------------------------------------------------------------------------------
 ------------------------------------------------------------------------------
 Atomic radii for non-electrostatic terms: SMD-CDS.
 ------------------------------------------------------------------------------
 Nuclear repulsion after PCM non-electrostatic terms =      161.8301644862 Hartrees.
 One-electron integrals computed using PRISM.
 NBasis=    97 RedAO= T EigKep=  2.84D-04  NBF=    97
 NBsUse=    97 1.00D-06 EigRej= -1.00D+00 NBFU=    97
 Initial guess from the checkpoint file:  "/scratch/global/Gau-72353.chk"
 B after Tr=    -0.000000   -0.000000    0.000000
         Rot=    1.000000    0.000000    0.000000   -0.000000 Ang=   0.00 deg.
 Keep R1 ints in memory in canonical form, NReq=15178330.
 Requested convergence on RMS density matrix=1.00D-08 within 128 cycles.
 Requested convergence on MAX density matrix=1.00D-06.
 Requested convergence on             energy=1.00D-06.
 No special actions if energy rises.
 Inv3:  Mode=1 IEnd=     2302128.
 Iteration    1 A*A^-1 deviation from unit magnitude is 2.89D-15 for    853.
 Iteration    1 A*A^-1 deviation from orthogonality  is 1.75D-15 for    253    155.
 Iteration    1 A^-1*A deviation from unit magnitude is 2.89D-15 for    833.
 Iteration    1 A^-1*A deviation from orthogonality  is 1.62D-15 for    583    254.
 Error on total polarization charges =  0.01577
 SCF Done:  E(RB3LYP) =  -2650.96683240     A.U. after    1 cycles
            NFock=  1  Conv=0.13D-08     -V/T= 2.0064
 SMD-CDS (non-electrostatic) energy       (kcal/mol) =      -2.00
 (included in total energy above)
 DoSCS=F DFT=T ScalE2(SS,OS)=  1.000000  1.000000
 Range of M.O.s used for correlation:     1    97
 NBasis=    97 NAE=    26 NBE=    26 NFC=     0 NFV=     0
 NROrb=     97 NOA=    26 NOB=    26 NVA=    71 NVB=    71

 **** Warning!!: The largest alpha MO coefficient is  0.26427655D+02

 Symmetrizing basis deriv contribution to polar:
 IMax=3 JMax=2 DiffMx= 0.00D+00
 G2DrvN: will do     9 centers at a time, making    1 passes.
 Calling FoFCou, ICntrl=  3107 FMM=F I1Cent=   0 AccDes= 0.00D+00.
 NEqPCM:  Using equilibrium solvation (IEInf=0, Eps=   7.4257, EpsInf=   1.9740)
 G2PCM: DoFxE=T DoFxN=T DoGrad=T DoDP/DQ/DG/TGxP=FFFF NFrqRd=   0 IEInf=0 SqF1=F DoCFld=F IF1Alg=4.
 End of G2Drv F.D. properties file   721 does not exist.
 End of G2Drv F.D. properties file   722 does not exist.
 End of G2Drv F.D. properties file   788 does not exist.
          IDoAtm=11111111
 NEqPCM:  Using equilibrium solvation (IEInf=0, Eps=   7.4257, EpsInf=   1.9740)
          Differentiating once with respect to electric field.
                with respect to dipole field.
          Differentiating once with respect to nuclear coordinates.
 Keep R1 ints in memory in canonical form, NReq=14519987.
          There are    27 degrees of freedom in the 1st order CPHF.  IDoFFX=6 NUNeed=     3.
     27 vectors produced by pass  0 Test12= 6.84D-15 3.70D-09 XBig12= 4.69D+01 4.58D+00.
 AX will form    27 AO Fock derivatives at one time.
     24 vectors produced by pass  1 Test12= 6.84D-15 3.70D-09 XBig12= 5.23D+00 5.59D-01.
     24 vectors produced by pass  2 Test12= 6.84D-15 3.70D-09 XBig12= 5.01D-02 4.95D-02.
     24 vectors produced by pass  3 Test12= 6.84D-15 3.70D-09 XBig12= 9.59D-05 2.30D-03.
     24 vectors produced by pass  4 Test12= 6.84D-15 3.70D-09 XBig12= 1.47D-07 7.61D-05.
     11 vectors produced by pass  5 Test12= 6.84D-15 3.70D-09 XBig12= 1.38D-10 1.61D-06.
      3 vectors produced by pass  6 Test12= 6.84D-15 3.70D-09 XBig12= 1.70D-13 9.61D-08.
      2 vectors produced by pass  7 Test12= 6.84D-15 3.70D-09 XBig12= 3.25D-16 6.48D-09.
 InvSVY:  IOpt=1 It=  1 EMax= 7.11D-15
 Solved reduced A of dimension   139 with    27 vectors.
 Isotropic polarizability for W=    0.000000       53.82 Bohr**3.
 End of Minotr F.D. properties file   721 does not exist.
 End of Minotr F.D. properties file   722 does not exist.
 End of Minotr F.D. properties file   788 does not exist.

 **********************************************************************

            Population analysis using the SCF density.

 **********************************************************************

 Orbital symmetries:
       Occupied  (A) (A) (A) (A) (A) (A) (A) (A) (A) (A) (A) (A)
                 (A) (A) (A) (A) (A) (A) (A) (A) (A) (A) (A) (A)
                 (A) (A)
       Virtual   (A) (A) (A) (A) (A) (A) (A) (A) (A) (A) (A) (A)
                 (A) (A) (A) (A) (A) (A) (A) (A) (A) (A) (A) (A)
                 (A) (A) (A) (A) (A) (A) (A) (A) (A) (A) (A) (A)
                 (A) (A) (A) (A) (A) (A) (A) (A) (A) (A) (A) (A)
                 (A) (A) (A) (A) (A) (A) (A) (A) (A) (A) (A) (A)
                 (A) (A) (A) (A) (A) (A) (A) (A) (A) (A) (A)
 The electronic state is 1-A.
 Alpha  occ. eigenvalues -- -482.90545 -61.86652 -56.38419 -56.38077 -56.38070
 Alpha  occ. eigenvalues --  -10.24076 -10.18653  -8.57414  -6.52611  -6.51459
 Alpha  occ. eigenvalues --   -6.51449  -2.64176  -2.63855  -2.63848  -2.62928
 Alpha  occ. eigenvalues --   -2.62928  -0.80765  -0.72316  -0.61191  -0.46571
 Alpha  occ. eigenvalues --   -0.43393  -0.39917  -0.36697  -0.34575  -0.27584
 Alpha  occ. eigenvalues --   -0.27454
 Alpha virt. eigenvalues --   -0.01604   0.00914   0.03284   0.04558   0.04963
 Alpha virt. eigenvalues --    0.06930   0.07799   0.07864   0.08631   0.09379
 Alpha virt. eigenvalues --    0.11809   0.13520   0.14660   0.19334   0.20391
 Alpha virt. eigenvalues --    0.22209   0.24578   0.30804   0.35145   0.45319
 Alpha virt. eigenvalues --    0.47664   0.47758   0.48973   0.50938   0.55148
 Alpha virt. eigenvalues --    0.60459   0.61194   0.62428   0.64630   0.65783
 Alpha virt. eigenvalues --    0.71709   0.77460   0.77638   0.88896   0.91693
 Alpha virt. eigenvalues --    0.95606   1.01061   1.06551   1.10176   1.18623
 Alpha virt. eigenvalues --    1.36561   1.42636   1.51571   1.65612   1.70292
 Alpha virt. eigenvalues --    1.80640   1.90726   2.04330   2.06753   2.07700
 Alpha virt. eigenvalues --    2.10893   2.11291   2.23762   2.34645   2.38252
 Alpha virt. eigenvalues --    2.45144   2.58008   2.63209   2.72651   2.80767
 Alpha virt. eigenvalues --    2.85661   2.88545   3.24562   3.28423   3.40286
 Alpha virt. eigenvalues --    3.45645   3.50889   4.31488   4.55585   8.83077
 Alpha virt. eigenvalues --   77.09482
          Condensed to atoms (all electrons):
               1          2          3          4          5          6
     1  C    5.169127   0.385530   0.412679   0.412679   0.224600  -0.033816
     2  H    0.385530   0.530605  -0.025353  -0.025355  -0.042317  -0.002227
     3  H    0.412679  -0.025353   0.521239  -0.027763  -0.049598  -0.005102
     4  H    0.412679  -0.025355  -0.027763   0.521238  -0.049595   0.004221
     5  C    0.224600  -0.042317  -0.049598  -0.049595   5.138122   0.387991
     6  H   -0.033816  -0.002227  -0.005102   0.004221   0.387991   0.526359
     7  H   -0.033817  -0.002227   0.004221  -0.005102   0.387990  -0.031713
     8  Br  -0.090561   0.009671  -0.002551  -0.002551   0.241948  -0.042087
               7          8
     1  C   -0.033817  -0.090561
     2  H   -0.002227   0.009671
     3  H    0.004221  -0.002551
     4  H   -0.005102  -0.002551
     5  C    0.387990   0.241948
     6  H   -0.031713  -0.042087
     7  H    0.526362  -0.042087
     8  Br  -0.042087  35.151533
 Mulliken charges:
               1
     1  C   -0.446421
     2  H    0.171673
     3  H    0.172227
     4  H    0.172228
     5  C   -0.239142
     6  H    0.196374
     7  H    0.196374
     8  Br  -0.223314
 Sum of Mulliken charges =   0.00000
 Mulliken charges with hydrogens summed into heavy atoms:
               1
     1  C    0.069708
     5  C    0.153607
     8  Br  -0.223314
 APT charges:
               1
     1  C   -0.024942
     2  H   -0.000913
     3  H    0.010685
     4  H    0.010700
     5  C    0.477985
     6  H   -0.029911
     7  H   -0.029945
     8  Br  -0.413658
 Sum of APT charges =  -0.00000
 APT charges with hydrogens summed into heavy atoms:
               1
     1  C   -0.004471
     5  C    0.418129
     8  Br  -0.413658
 Electronic spatial extent (au):  <R**2>=            386.5510
 Charge=              0.0000 electrons
 Dipole moment (field-independent basis, Debye):
    X=             -2.8443    Y=              0.9152    Z=              0.0000  Tot=              2.9880
 Quadrupole moment (field-independent basis, Debye-Ang):
   XX=            -30.0461   YY=            -32.0675   ZZ=            -32.6951
   XY=             -1.4520   XZ=             -0.0000   YZ=             -0.0000
 Traceless Quadrupole moment (field-independent basis, Debye-Ang):
   XX=              1.5568   YY=             -0.4646   ZZ=             -1.0922
   XY=             -1.4520   XZ=             -0.0000   YZ=             -0.0000
 Octapole moment (field-independent basis, Debye-Ang**2):
  XXX=             19.1833  YYY=              0.4280  ZZZ=              0.0001  XYY=              5.6984
  XXY=             -0.8047  XXZ=              0.0001  XZZ=              5.5705  YZZ=              0.4146
  YYZ=             -0.0001  XYZ=              0.0001
 Hexadecapole moment (field-independent basis, Debye-Ang**3):
 XXXX=           -353.6452 YYYY=            -85.4887 ZZZZ=            -54.9092 XXXY=             -9.4409
 XXXZ=             -0.0002 YYYX=             -4.5388 YYYZ=             -0.0001 ZZZX=             -0.0003
 ZZZY=             -0.0000 XXYY=            -75.4711 XXZZ=            -71.9668 YYZZ=            -20.9320
 XXYZ=             -0.0003 YYXZ=              0.0000 ZZXY=             -1.1004
 N-N= 1.618301644862D+02 E-N=-6.639960666893D+03  KE= 2.634086391250D+03
  Exact polarizability:  67.926  -4.157  48.075   0.017  -0.006  45.458
 Approx polarizability:  78.284  -7.732  56.040  -0.000  -0.000  53.311
 D2PCM: PCM CHGder 2nd derivatives, FixD1E=F FixD2E=F DoIter=F DoCFld=F I1PDM=0
 Calling FoFJK, ICntrl=    100127 FMM=F ISym2X=0 I1Cent= 0 IOpClX= 0 NMat=1 NMatS=1 NMatT=0.
 Full mass-weighted force constant matrix:
 Low frequencies ---  -55.1774  -15.0470  -13.9157   -0.0109   -0.0040    0.0107
 Low frequencies ---  266.5382  287.2253  532.8328
 Diagonal vibrational polarizability:
        7.5710807       0.5385241       0.6044714
 Harmonic frequencies (cm**-1), IR intensities (KM/Mole), Raman scattering
 activities (A**4/AMU), depolarization ratios for plane and unpolarized
 incident light, reduced masses (AMU), force constants (mDyne/A),
 and normal coordinates:
                      1                      2                      3
                      A                      A                      A
 Frequencies --    266.5359               287.2240               532.8323
 Red. masses --      1.0779                 3.3087                 4.2508
 Frc consts  --      0.0451                 0.1608                 0.7111
 IR Inten    --      0.0137                 4.8907                37.6570
  Atom  AN      X      Y      Z        X      Y      Z        X      Y      Z
     1   6    -0.00   0.00   0.01     0.34  -0.04   0.00     0.05   0.03   0.00
     2   1    -0.00   0.00   0.61     0.19  -0.37   0.00     0.29   0.51  -0.00
     3   1    -0.38   0.31  -0.24     0.55  -0.03   0.01    -0.25   0.00  -0.01
     4   1     0.38  -0.31  -0.24     0.55  -0.03  -0.01    -0.25   0.00   0.01
     5   6    -0.00  -0.00  -0.07     0.10   0.17  -0.00     0.39  -0.30   0.00
     6   1    -0.01  -0.05  -0.11     0.05   0.16  -0.01     0.28  -0.25   0.04
     7   1     0.01   0.05  -0.11     0.05   0.16   0.00     0.28  -0.25  -0.04
     8  35     0.00   0.00   0.01    -0.08  -0.02   0.00    -0.07   0.04  -0.00
                      4                      5                      6
                      A                      A                      A
 Frequencies --    781.0084               970.7629              1045.4774
 Red. masses --      1.1151                 1.6845                 1.1824
 Frc consts  --      0.4007                 0.9353                 0.7615
 IR Inten    --      6.4867                37.8698                 0.0387
  Atom  AN      X      Y      Z        X      Y      Z        X      Y      Z
     1   6     0.00   0.00   0.03     0.19   0.04  -0.00    -0.00   0.00  -0.08
     2   1     0.00   0.00  -0.17     0.45   0.61   0.00    -0.00  -0.00   0.22
     3   1     0.24   0.30  -0.17    -0.20   0.09  -0.06    -0.20  -0.26   0.10
     4   1    -0.24  -0.30  -0.17    -0.20   0.09   0.06     0.20   0.26   0.10
     5   6    -0.00  -0.00   0.09    -0.15  -0.05   0.00     0.00   0.00   0.10
     6   1    -0.01  -0.49  -0.25    -0.35  -0.10  -0.02     0.55  -0.21  -0.06
     7   1     0.01   0.49  -0.25    -0.35  -0.10   0.02    -0.55   0.21  -0.06
     8  35     0.00  -0.00  -0.01     0.00  -0.00  -0.00     0.00   0.00  -0.01
                      7                      8                      9
                      A                      A                      A
 Frequencies --   1084.8131              1268.7179              1290.4018
 Red. masses --      2.1574                 1.2387                 1.2117
 Frc consts  --      1.4959                 1.1748                 1.1888
 IR Inten    --      0.3704                 0.1132                91.4339
  Atom  AN      X      Y      Z        X      Y      Z        X      Y      Z
     1   6     0.03   0.22  -0.00     0.00  -0.00  -0.12     0.04  -0.05   0.00
     2   1    -0.23  -0.34   0.00     0.00   0.00   0.19     0.12   0.14  -0.00
     3   1     0.51   0.21   0.05    -0.18  -0.29   0.08    -0.09   0.05  -0.07
     4   1     0.51   0.21  -0.05     0.18   0.29   0.08    -0.09   0.05   0.07
     5   6    -0.11  -0.21   0.00    -0.00   0.00   0.08    -0.12   0.01  -0.00
     6   1     0.09  -0.22  -0.00    -0.54  -0.23  -0.06     0.67  -0.03  -0.05
     7   1     0.09  -0.22   0.00     0.54   0.23  -0.06     0.67  -0.03   0.05
     8  35     0.00   0.00   0.00    -0.00   0.00   0.00    -0.00   0.00  -0.00
                     10                     11                     12
                      A                      A                      A
 Frequencies --   1415.0517              1477.4735              1481.3911
 Red. masses --      1.2315                 1.0365                 1.0952
 Frc consts  --      1.4529                 1.3331                 1.4161
 IR Inten    --     10.9000                19.8519                 1.5156
  Atom  AN      X      Y      Z        X      Y      Z        X      Y      Z
     1   6    -0.11  -0.09  -0.00     0.00   0.00  -0.05     0.01   0.03   0.00
     2   1     0.22   0.57   0.00    -0.00   0.00   0.70     0.06   0.12  -0.00
     3   1     0.49   0.19  -0.14     0.50  -0.05   0.05     0.03  -0.26   0.20
     4   1     0.49   0.19   0.14    -0.50   0.05   0.05     0.03  -0.26  -0.20
     5   6     0.01   0.00  -0.00    -0.00   0.00  -0.02    -0.03  -0.08  -0.00
     6   1    -0.03   0.07   0.04     0.01   0.04   0.00     0.06   0.49   0.37
     7   1    -0.03   0.07  -0.04    -0.01  -0.04   0.00     0.06   0.49  -0.37
     8  35     0.00  -0.00   0.00    -0.00   0.00   0.00     0.00  -0.00   0.00
                     13                     14                     15
                      A                      A                      A
 Frequencies --   1489.2347              3038.8212              3105.6313
 Red. masses --      1.0640                 1.0395                 1.0885
 Frc consts  --      1.3904                 5.6558                 6.1855
 IR Inten    --      5.1980                20.2153                 4.5759
  Atom  AN      X      Y      Z        X      Y      Z        X      Y      Z
     1   6     0.03  -0.04  -0.00    -0.05  -0.02   0.00    -0.04   0.07  -0.00
     2   1    -0.10  -0.27   0.00     0.69  -0.34   0.00     0.49  -0.23   0.00
     3   1    -0.15   0.45  -0.35    -0.04   0.26   0.37     0.03  -0.28  -0.41
     4   1    -0.15   0.45   0.35    -0.04   0.26  -0.37     0.03  -0.28   0.41
     5   6     0.01  -0.05  -0.00     0.00  -0.00  -0.00    -0.00  -0.03   0.00
     6   1    -0.04   0.25   0.20    -0.00   0.01  -0.01    -0.01   0.18  -0.27
     7   1    -0.04   0.25  -0.20    -0.00   0.01   0.01    -0.01   0.18   0.27
     8  35     0.00  -0.00   0.00     0.00  -0.00  -0.00     0.00  -0.00   0.00
                     16                     17                     18
                      A                      A                      A
 Frequencies --   3118.9918              3131.2296              3185.0990
 Red. masses --      1.0652                 1.1047                 1.1120
 Frc consts  --      6.1056                 6.3817                 6.6469
 IR Inten    --     27.9672                18.0714                 5.9928
  Atom  AN      X      Y      Z        X      Y      Z        X      Y      Z
     1   6    -0.02   0.03  -0.00     0.00  -0.00  -0.09     0.00  -0.00  -0.02
     2   1     0.26  -0.12   0.00    -0.00   0.00  -0.02    -0.00   0.00  -0.00
     3   1     0.01  -0.13  -0.19    -0.05   0.40   0.56    -0.01   0.09   0.12
     4   1     0.01  -0.13   0.19     0.05  -0.40   0.56     0.01  -0.09   0.12
     5   6    -0.00   0.06  -0.00     0.00   0.00   0.02     0.00  -0.00  -0.10
     6   1     0.02  -0.35   0.53    -0.01   0.08  -0.12     0.02  -0.39   0.56
     7   1     0.02  -0.35  -0.53     0.01  -0.08  -0.12    -0.02   0.39   0.56
     8  35     0.00  -0.00   0.00    -0.00   0.00   0.00    -0.00   0.00   0.00

 -------------------
 - Thermochemistry -
 -------------------
 Temperature   298.150 Kelvin.  Pressure   1.00000 Atm.
 Atom     1 has atomic number  6 and mass  12.00000
 Atom     2 has atomic number  1 and mass   1.00783
 Atom     3 has atomic number  1 and mass   1.00783
 Atom     4 has atomic number  1 and mass   1.00783
 Atom     5 has atomic number  6 and mass  12.00000
 Atom     6 has atomic number  1 and mass   1.00783
 Atom     7 has atomic number  1 and mass   1.00783
 Atom     8 has atomic number 35 and mass  78.91834
 Molecular mass:   107.95746 amu.
 Principal axes and moments of inertia in atomic units:
                           1         2         3
     Eigenvalues --    59.74043 493.30910 530.23142
           X            0.99993   0.01153  -0.00000
           Y           -0.01153   0.99993  -0.00000
           Z            0.00000   0.00000   1.00000
 This molecule is an asymmetric top.
 Rotational symmetry number  1.
 Rotational temperatures (Kelvin)      1.44984     0.17558     0.16335
 Rotational constants (GHZ):          30.20971     3.65844     3.40369
 Zero-point vibrational energy     173283.3 (Joules/Mol)
                                   41.41569 (Kcal/Mol)
 Warning -- explicit consideration of   3 degrees of freedom as
           vibrations may cause significant error
 Vibrational temperatures:    383.49   413.25   766.63  1123.70  1396.71
          (Kelvin)           1504.21  1560.80  1825.40  1856.60  2035.94
                             2125.75  2131.39  2142.67  4372.18  4468.31
                             4487.53  4505.14  4582.64
 
 Zero-point correction=                           0.066000 (Hartree/Particle)
 Thermal correction to Energy=                    0.070163
 Thermal correction to Enthalpy=                  0.071108
 Thermal correction to Gibbs Free Energy=         0.038568
 Sum of electronic and zero-point Energies=          -2650.900832
 Sum of electronic and thermal Energies=             -2650.896669
 Sum of electronic and thermal Enthalpies=           -2650.895725
 Sum of electronic and thermal Free Energies=        -2650.928264
 
                     E (Thermal)             CV                S
                      KCal/Mol        Cal/Mol-Kelvin    Cal/Mol-Kelvin
 Total                   44.028             12.944             68.485
 Electronic               0.000              0.000              0.000
 Translational            0.889              2.981             39.946
 Rotational               0.889              2.981             24.261
 Vibrational             42.251              6.982              4.277
 Vibration     1          0.672              1.735              1.619
 Vibration     2          0.684              1.697              1.490
 Vibration     3          0.888              1.177              0.581
                       Q            Log10(Q)             Ln(Q)
 Total Bot       0.181881D-17        -17.740214        -40.848352
 Total V=0       0.414632D+13         12.617662         29.053241
 Vib (Bot)       0.921890D-30        -30.035321        -69.158882
 Vib (Bot)    1  0.726360D+00         -0.138848         -0.319709
 Vib (Bot)    2  0.666802D+00         -0.176003         -0.405261
 Vib (Bot)    3  0.299356D+00         -0.523812         -1.206121
 Vib (V=0)       0.210163D+01          0.322555          0.742711
 Vib (V=0)    1  0.138182D+01          0.140450          0.323398
 Vib (V=0)    2  0.133344D+01          0.124974          0.287764
 Vib (V=0)    3  0.108276D+01          0.034534          0.079517
 Electronic      0.100000D+01          0.000000          0.000000
 Translational   0.440894D+08          7.644334         17.601730
 Rotational      0.447479D+05          4.650773         10.708800
 ***** Axes restored to original set *****
 -------------------------------------------------------------------
 Center     Atomic                   Forces (Hartrees/Bohr)
 Number     Number              X              Y              Z
 -------------------------------------------------------------------
      1        6          -0.000026778   -0.000176158    0.000000008
      2        1          -0.000017096   -0.000071935   -0.000001236
      3        1           0.000012972    0.000046824   -0.000036685
      4        1           0.000012233    0.000043258    0.000034649
      5        6          -0.000126701    0.000003856    0.000002004
      6        1          -0.000054965    0.000016986   -0.000008275
      7        1          -0.000053562    0.000014237    0.000009686
      8       35           0.000253897    0.000122931   -0.000000151
 -------------------------------------------------------------------
 Cartesian Forces:  Max     0.000253897 RMS     0.000078086
 FormGI is forming the generalized inverse of G from B-inverse, IUseBI=4.

 GradGradGradGradGradGradGradGradGradGradGradGradGradGradGradGradGradGrad
 Berny optimization.
 Internal  Forces:  Max     0.000287971 RMS     0.000068066
 Search for a local minimum.
 Step number   1 out of a maximum of    2
 All quantities printed in internal units (Hartrees-Bohrs-Radians)
 Second derivative matrix not updated -- analytic derivatives used.
 ITU=  0
     Eigenvalues ---    0.00306   0.03984   0.04391   0.04556   0.05750
     Eigenvalues ---    0.11288   0.12234   0.12469   0.13225   0.17154
     Eigenvalues ---    0.17319   0.20408   0.31422   0.33418   0.34042
     Eigenvalues ---    0.34721   0.34895   0.35374
 Angle between quadratic step and forces=  25.77 degrees.
 Linear search not attempted -- first point.
 Iteration  1 RMS(Cart)=  0.00043121 RMS(Int)=  0.00000005
 Iteration  2 RMS(Cart)=  0.00000005 RMS(Int)=  0.00000002
 Variable       Old X    -DE/DX   Delta X   Delta X   Delta X     New X
                                 (Linear)    (Quad)   (Total)
    R1        2.07486  -0.00004   0.00000  -0.00010  -0.00010   2.07475
    R2        2.06725   0.00005   0.00000   0.00017   0.00017   2.06742
    R3        2.06726   0.00005   0.00000   0.00016   0.00016   2.06742
    R4        2.85916  -0.00015   0.00000  -0.00037  -0.00037   2.85879
    R5        2.05961  -0.00001   0.00000  -0.00003  -0.00003   2.05958
    R6        2.05960  -0.00001   0.00000  -0.00002  -0.00002   2.05958
    R7        3.77724  -0.00029   0.00000  -0.00199  -0.00199   3.77526
    A1        1.88594   0.00001   0.00000  -0.00006  -0.00006   1.88588
    A2        1.88592   0.00001   0.00000  -0.00004  -0.00004   1.88588
    A3        1.89111  -0.00007   0.00000  -0.00034  -0.00034   1.89077
    A4        1.89787  -0.00002   0.00000  -0.00015  -0.00015   1.89772
    A5        1.95042   0.00004   0.00000   0.00029   0.00029   1.95071
    A6        1.95043   0.00003   0.00000   0.00028   0.00028   1.95071
    A7        1.96756  -0.00000   0.00000  -0.00027  -0.00027   1.96730
    A8        1.96754   0.00000   0.00000  -0.00024  -0.00024   1.96730
    A9        1.95351  -0.00007   0.00000  -0.00012  -0.00012   1.95339
   A10        1.91514   0.00003   0.00000   0.00020   0.00020   1.91534
   A11        1.82485   0.00002   0.00000   0.00025   0.00025   1.82509
   A12        1.82484   0.00002   0.00000   0.00026   0.00026   1.82509
    D1       -1.09005  -0.00002   0.00000   0.00002   0.00002  -1.09003
    D2        1.09015   0.00002   0.00000  -0.00012  -0.00012   1.09003
    D3       -3.14156   0.00000   0.00000  -0.00004  -0.00004   3.14159
    D4        0.98591  -0.00003   0.00000  -0.00009  -0.00009   0.98582
    D5       -3.11708   0.00001   0.00000  -0.00023  -0.00023  -3.11732
    D6       -1.06560  -0.00001   0.00000  -0.00015  -0.00015  -1.06575
    D7        3.11719  -0.00001   0.00000   0.00012   0.00012   3.11732
    D8       -0.98580   0.00003   0.00000  -0.00002  -0.00002  -0.98582
    D9        1.06568   0.00001   0.00000   0.00006   0.00006   1.06575
         Item               Value     Threshold  Converged?
 Maximum Force            0.000288     0.000450     YES
 RMS     Force            0.000068     0.000300     YES
 Maximum Displacement     0.001553     0.001800     YES
 RMS     Displacement     0.000431     0.001200     YES
 Predicted change in Energy=-3.584019D-07
 Optimization completed.
    -- Stationary point found.
                           ----------------------------
                           !   Optimized Parameters   !
                           ! (Angstroms and Degrees)  !
 --------------------------                            --------------------------
 ! Name  Definition              Value          Derivative Info.                !
 --------------------------------------------------------------------------------
 ! R1    R(1,2)                  1.098          -DE/DX =    0.0                 !
 ! R2    R(1,3)                  1.0939         -DE/DX =    0.0001              !
 ! R3    R(1,4)                  1.0939         -DE/DX =    0.0001              !
 ! R4    R(1,5)                  1.513          -DE/DX =   -0.0001              !
 ! R5    R(5,6)                  1.0899         -DE/DX =    0.0                 !
 ! R6    R(5,7)                  1.0899         -DE/DX =    0.0                 !
 ! R7    R(5,8)                  1.9988         -DE/DX =   -0.0003              !
 ! A1    A(2,1,3)              108.0563         -DE/DX =    0.0                 !
 ! A2    A(2,1,4)              108.0552         -DE/DX =    0.0                 !
 ! A3    A(2,1,5)              108.3528         -DE/DX =   -0.0001              !
 ! A4    A(3,1,4)              108.7398         -DE/DX =    0.0                 !
 ! A5    A(3,1,5)              111.7507         -DE/DX =    0.0                 !
 ! A6    A(4,1,5)              111.7515         -DE/DX =    0.0                 !
 ! A7    A(1,5,6)              112.733          -DE/DX =    0.0                 !
 ! A8    A(1,5,7)              112.7317         -DE/DX =    0.0                 !
 ! A9    A(1,5,8)              111.9277         -DE/DX =   -0.0001              !
 ! A10   A(6,5,7)              109.7293         -DE/DX =    0.0                 !
 ! A11   A(6,5,8)              104.556          -DE/DX =    0.0                 !
 ! A12   A(7,5,8)              104.5554         -DE/DX =    0.0                 !
 ! D1    D(2,1,5,6)            -62.4551         -DE/DX =    0.0                 !
 ! D2    D(2,1,5,7)             62.4607         -DE/DX =    0.0                 !
 ! D3    D(2,1,5,8)            180.002          -DE/DX =    0.0                 !
 ! D4    D(3,1,5,6)             56.4885         -DE/DX =    0.0                 !
 ! D5    D(3,1,5,7)           -178.5957         -DE/DX =    0.0                 !
 ! D6    D(3,1,5,8)            -61.0544         -DE/DX =    0.0                 !
 ! D7    D(4,1,5,6)            178.6021         -DE/DX =    0.0                 !
 ! D8    D(4,1,5,7)            -56.4821         -DE/DX =    0.0                 !
 ! D9    D(4,1,5,8)             61.0592         -DE/DX =    0.0                 !
 --------------------------------------------------------------------------------
 GradGradGradGradGradGradGradGradGradGradGradGradGradGradGradGradGradGrad

 1\1\GINC-N2\Freq\RB3LYP\6-31+G(d,p)\C2H5Br1\RICA\12-Oct-2021\0\\#N Geo
 m=AllCheck Guess=TCheck SCRF=Check GenChk RB3LYP/6-31+G(d,p) Freq\\cl(
 -)...H3C-cl (ts)\\0,1\C,0.7881426865,1.6219603258,0.0059002337\H,1.874
 6455503,1.7801910491,0.0038728172\H,0.3723700231,2.1127522487,-0.87895
 21466\H,0.3773687715,2.1013400673,0.8993082127\C,0.5236522641,0.132282
 8616,-0.0029306882\H,0.9052303646,-0.3579294014,-0.8984578602\H,0.9101
 462252,-0.369345307,0.8841226383\Br,-1.4325008853,-0.2785438442,-0.000
 1552069\\Version=ES64L-G09RevE.01\State=1-A\HF=-2650.9668324\RMSD=1.30
 9e-09\RMSF=7.809e-05\ZeroPoint=0.0660001\Thermal=0.0701635\Dipole=1.12
 93036,0.3265052,-0.0010245\DipoleDeriv=-0.1496593,-0.1839556,-0.000402
 6,-0.0313543,-0.022936,-0.0007958,0.0004056,-0.0002502,0.097768,-0.140
 7192,-0.0552482,0.0003279,-0.1137061,0.0091736,-0.00044,0.000046,-0.00
 06107,0.1288052,0.0782671,0.0695201,-0.0922078,0.00173,0.014428,0.0401
 707,-0.0685975,0.0865352,-0.0606395,0.0791768,0.06786,0.0922997,0.0006
 093,0.0160232,-0.0391338,0.067906,-0.0859394,-0.0631004,1.0335278,0.38
 30314,-0.0002833,0.3307588,0.2959672,0.0002815,-0.0004944,0.00015,0.10
 44615,-0.1042709,-0.0319701,0.042408,-0.0281364,0.0026483,-0.0555459,0
 .041435,-0.0727373,0.01189,-0.1047774,-0.0310311,-0.0420703,-0.0272647
 ,0.0010062,0.0556205,-0.041234,0.0727559,0.0139352,-0.6915449,-0.21820
 65,-0.0000715,-0.1326365,-0.3163107,-0.0001571,0.0005333,0.0000965,-0.
 2331199\Polar=65.5826709,7.6354401,50.4179826,-0.0239534,0.0062993,45.
 4582988\PG=C01 [X(C2H5Br1)]\NImag=0\\0.55487330,-0.03316627,0.49127296
 ,-0.00012832,-0.00049844,0.58297398,-0.30188893,-0.03423377,0.00049616
 ,0.32774216,-0.03495680,-0.05208142,0.00006206,0.04025313,0.05492611,0
 .00049163,0.00005982,-0.04643089,-0.00053624,-0.00004411,0.04426389,-0
 .08700853,0.04747712,-0.08486088,-0.01059234,0.01400558,-0.02542950,0.
 08984685,0.04428209,-0.09798673,0.09277833,-0.00145130,0.00201753,-0.0
 0464957,-0.04837732,0.10925553,-0.08385307,0.09569104,-0.22743032,0.00
 060810,-0.00137190,0.00122877,0.09255592,-0.10455721,0.24121973,-0.086
 06069,0.04585244,0.08465516,-0.01045279,0.01368477,0.02567335,0.004910
 96,-0.00656439,-0.01060482,0.08880805,0.04268720,-0.09558448,-0.091320
 39,-0.00141742,0.00194046,0.00466741,-0.00663636,0.00665740,0.01138827
 ,-0.04660530,0.10658757,0.08360668,-0.09425126,-0.23077379,-0.00056067
 ,0.00130378,0.00116529,0.01038506,-0.01101945,-0.01915338,-0.09229857,
 0.10308484,0.24492011,-0.06338817,-0.01208220,-0.00013455,-0.00770114,
 -0.02930906,-0.00017125,0.00047106,0.01349264,0.00084479,0.00042959,0.
 01334180,-0.00066775,0.29020373,-0.01379178,-0.21421204,-0.00079603,-0
 .00178081,-0.00438901,-0.00001325,-0.00517428,-0.01613251,-0.00065386,
 -0.00508544,-0.01576974,0.00045962,-0.07207266,0.48826223,-0.00014555,
 -0.00080009,-0.08418425,0.00000584,0.00006409,-0.00156693,0.00657239,0
 .02862153,0.00155450,-0.00663315,-0.02891908,0.00123365,0.00040004,-0.
 00053002,0.60183300,0.00430632,-0.00347888,-0.00598169,0.00054239,0.00
 054741,0.00020103,-0.00031072,-0.00006437,0.00037521,0.00111216,-0.001
 68928,0.00032520,-0.07224067,0.04914403,0.08268918,0.08342609,0.011264
 87,-0.01383260,-0.02746034,-0.00021279,0.00120210,0.00022338,0.0003931
 7,0.00146085,0.00039252,-0.00163312,-0.00608517,0.00043757,0.04475767,
 -0.10531645,-0.10166014,-0.04283464,0.11262850,-0.00115284,0.00174561,
 0.00258080,-0.00017591,-0.00039692,0.00012031,-0.00018063,-0.00034200,
 0.00081446,-0.00016162,0.00074050,0.00151099,0.08002780,-0.10267344,-0
 .24728284,-0.08385864,0.11150445,0.25613810,0.00434643,-0.00356466,0.0
 0592714,0.00054221,0.00055223,-0.00019626,0.00111107,-0.00168919,-0.00
 034452,-0.00031166,-0.00005780,-0.00036967,-0.07313959,0.05077665,-0.0
 8300418,0.00698870,-0.00544838,0.00908367,0.08435310,0.01140128,-0.014
 16096,0.02718292,-0.00021642,0.00119955,-0.00020826,-0.00163796,-0.006
 06910,-0.00052528,0.00038852,0.00146169,-0.00038597,0.04635095,-0.1079
 5339,0.10319008,-0.00539710,0.00756340,-0.01189263,-0.04453213,0.11550
 698,0.00128833,-0.00193986,0.00286859,0.00017115,0.00040756,0.00012267
 ,0.00014293,-0.00082854,0.00149561,0.00019207,0.00035028,0.00081458,-0
 .08039838,0.10418001,-0.24374938,-0.00929220,0.01225220,-0.01817348,0.
 08423999,-0.11306163,0.25233719,-0.02517972,-0.00680378,0.00002699,0.0
 0180843,-0.00477724,-0.00003275,0.00157166,0.00037183,0.00041839,0.001
 56438,0.00037715,-0.00042026,-0.07463481,-0.00201571,0.00011543,-0.023
 82428,-0.00628679,-0.00358183,-0.02389026,-0.00635713,0.00365611,0.142
 58459,-0.02772059,-0.00341473,0.00005189,-0.00094063,-0.00481532,-0.00
 003541,-0.00004995,0.00079704,-0.00036357,-0.00003748,0.00079228,0.000
 37087,-0.00447912,-0.02448909,0.00003362,0.00377283,0.00237937,0.00131
 443,0.00396327,0.00245184,-0.00136003,0.02549166,0.02629860,-0.0001068
 6,-0.00000682,0.00039588,-0.00000842,-0.00002456,0.00109690,0.00081472
 ,-0.00000310,0.00027063,-0.00082243,0.00000817,0.00028254,0.00009930,0
 .00002697,-0.02783774,0.01554193,0.00431035,0.00429167,-0.01533616,-0.
 00429922,0.00428422,-0.00018208,-0.00001179,0.01721590\\0.00002678,0.0
 0017616,0.,0.00001710,0.00007193,0.00000124,-0.00001297,-0.00004682,0.
 00003668,-0.00001223,-0.00004326,-0.00003465,0.00012670,-0.00000386,-0
 .00000200,0.00005497,-0.00001699,0.00000828,0.00005356,-0.00001424,-0.
 00000969,-0.00025390,-0.00012293,0.00000015\\\@


 PATIENCE IS THE ABILITY TO IDLE YOUR MOTOR WHEN
 YOU FEEL LIKE STRIPPING YOUR GEARS.
 Job cpu time:       0 days  0 hours 12 minutes  1.6 seconds.
 File lengths (MBytes):  RWF=     28 Int=      0 D2E=      0 Chk=      4 Scr=      1
 Normal termination of Gaussian 09 at Tue Oct 12 11:09:35 2021.
