 Entering Gaussian System, Link 0=g16
 Initial command:
 /ichec/packages/gaussian/16c01/l1.exe "/scratch/global/Gau-43860.inp" -scrdir="/scratch/global/"
 Entering Link 1 = /ichec/packages/gaussian/16c01/l1.exe PID=     44407.
  
 Copyright (c) 1988-2019, Gaussian, Inc.  All Rights Reserved.
  
 This is part of the Gaussian(R) 16 program.  It is based on
 the Gaussian(R) 09 system (copyright 2009, Gaussian, Inc.),
 the Gaussian(R) 03 system (copyright 2003, Gaussian, Inc.),
 the Gaussian(R) 98 system (copyright 1998, Gaussian, Inc.),
 the Gaussian(R) 94 system (copyright 1995, Gaussian, Inc.),
 the Gaussian 92(TM) system (copyright 1992, Gaussian, Inc.),
 the Gaussian 90(TM) system (copyright 1990, Gaussian, Inc.),
 the Gaussian 88(TM) system (copyright 1988, Gaussian, Inc.),
 the Gaussian 86(TM) system (copyright 1986, Carnegie Mellon
 University), and the Gaussian 82(TM) system (copyright 1983,
 Carnegie Mellon University). Gaussian is a federally registered
 trademark of Gaussian, Inc.
  
 This software contains proprietary and confidential information,
 including trade secrets, belonging to Gaussian, Inc.
  
 This software is provided under written license and may be
 used, copied, transmitted, or stored only in accord with that
 written license.
  
 The following legend is applicable only to US Government
 contracts under FAR:
  
                    RESTRICTED RIGHTS LEGEND
  
 Use, reproduction and disclosure by the US Government is
 subject to restrictions as set forth in subparagraphs (a)
 and (c) of the Commercial Computer Software - Restricted
 Rights clause in FAR 52.227-19.
  
 Gaussian, Inc.
 340 Quinnipiac St., Bldg. 40, Wallingford CT 06492
  
  
 ---------------------------------------------------------------
 Warning -- This program may not be used in any manner that
 competes with the business of Gaussian, Inc. or will provide
 assistance to any competitor of Gaussian, Inc.  The licensee
 of this program is prohibited from giving any competitor of
 Gaussian, Inc. access to this program.  By using this program,
 the user acknowledges that Gaussian, Inc. is engaged in the
 business of creating and licensing software in the field of
 computational chemistry and represents and warrants to the
 licensee that it is not a competitor of Gaussian, Inc. and that
 it will not use this program in any manner prohibited above.
 ---------------------------------------------------------------
  

 Cite this work as:
 Gaussian 16, Revision C.01,
 M. J. Frisch, G. W. Trucks, H. B. Schlegel, G. E. Scuseria, 
 M. A. Robb, J. R. Cheeseman, G. Scalmani, V. Barone, 
 G. A. Petersson, H. Nakatsuji, X. Li, M. Caricato, A. V. Marenich, 
 J. Bloino, B. G. Janesko, R. Gomperts, B. Mennucci, H. P. Hratchian, 
 J. V. Ortiz, A. F. Izmaylov, J. L. Sonnenberg, D. Williams-Young, 
 F. Ding, F. Lipparini, F. Egidi, J. Goings, B. Peng, A. Petrone, 
 T. Henderson, D. Ranasinghe, V. G. Zakrzewski, J. Gao, N. Rega, 
 G. Zheng, W. Liang, M. Hada, M. Ehara, K. Toyota, R. Fukuda, 
 J. Hasegawa, M. Ishida, T. Nakajima, Y. Honda, O. Kitao, H. Nakai, 
 T. Vreven, K. Throssell, J. A. Montgomery, Jr., J. E. Peralta, 
 F. Ogliaro, M. J. Bearpark, J. J. Heyd, E. N. Brothers, K. N. Kudin, 
 V. N. Staroverov, T. A. Keith, R. Kobayashi, J. Normand, 
 K. Raghavachari, A. P. Rendell, J. C. Burant, S. S. Iyengar, 
 J. Tomasi, M. Cossi, J. M. Millam, M. Klene, C. Adamo, R. Cammi, 
 J. W. Ochterski, R. L. Martin, K. Morokuma, O. Farkas, 
 J. B. Foresman, and D. J. Fox, Gaussian, Inc., Wallingford CT, 2019.
 
 ******************************************
 Gaussian 16:  ES64L-G16RevC.01  3-Jul-2019
                16-Sep-2021 
 ******************************************
 %mem=140GB
 %nprocshared=40
 Will use up to   40 processors via shared memory.
 ----------------------------------------------------------------------
 # opt=(calcfc,ts,noeigentest) freq b3lyp/6-31+g(d,p) scrf=(smd,solvent
 =THF)
 ----------------------------------------------------------------------
 1/5=1,10=4,11=1,18=20,26=3,38=1/1,3;
 2/9=110,12=2,17=6,18=5,40=1/2;
 3/5=1,6=6,7=111,11=2,25=1,30=1,70=32201,71=2,72=20,74=-5,140=1/1,2,3;
 4//1;
 5/5=2,38=5,53=20/2;
 8/6=4,10=90,11=11/1;
 11/6=1,8=1,9=11,15=111,16=1/1,2,10;
 10/6=1,13=1/2;
 6/7=2,8=2,9=2,10=2,28=1/1;
 7/10=1,25=1/1,2,3,16;
 1/5=1,10=4,11=1,18=20,26=3/3(2);
 2/9=110/2;
 99//99;
 2/9=110/2;
 3/5=1,6=6,7=111,11=2,25=1,30=1,70=32205,71=1,72=20,74=-5/1,2,3;
 4/5=5,16=3,69=1/1;
 5/5=2,38=5,53=20/2;
 7//1,2,3,16;
 1/5=1,11=1,18=20,26=3/3(-5);
 2/9=110/2;
 6/7=2,8=2,9=2,10=2,19=2,28=1/1;
 99/9=1/99;
 -------------------
 cl(-)...H3C-cl (ts)
 -------------------
 Symbolic Z-matrix:
 Charge = -1 Multiplicity = 1
 C                     0.        1.54     -0.76177 
 H                     0.00201   1.89419   0.2479 
 H                     0.87264   1.8979   -1.26704 
 H                    -0.87466   1.89789  -1.26356 
 C                     0.        0.       -0.76555 
 H                     0.87465  -0.3579   -0.26377 
 H                    -0.87264  -0.35791  -0.26029 
 Br                    0.        0.       -3.13156 
 O                     0.        0.        1.71767 
 H                     0.96      0.        1.71767 
 
 Add virtual bond connecting atoms H10        and H6         Dist= 3.81D+00.
 Add virtual bond connecting atoms Br8        and C5         Dist= 4.47D+00.

 GradGradGradGradGradGradGradGradGradGradGradGradGradGradGradGradGradGrad
 Berny optimization.
 Initialization pass.
                           ----------------------------
                           !    Initial Parameters    !
                           ! (Angstroms and Degrees)  !
 --------------------------                            --------------------------
 ! Name  Definition              Value          Derivative Info.                !
 --------------------------------------------------------------------------------
 ! R1    R(1,2)                  1.07           calculate D2E/DX2 analytically  !
 ! R2    R(1,3)                  1.07           calculate D2E/DX2 analytically  !
 ! R3    R(1,4)                  1.07           calculate D2E/DX2 analytically  !
 ! R4    R(1,5)                  1.54           calculate D2E/DX2 analytically  !
 ! R5    R(5,6)                  1.07           calculate D2E/DX2 analytically  !
 ! R6    R(5,7)                  1.07           calculate D2E/DX2 analytically  !
 ! R7    R(5,8)                  2.366          calculate D2E/DX2 analytically  !
 ! R8    R(6,10)                 2.0153         calculate D2E/DX2 analytically  !
 ! R9    R(9,10)                 0.96           calculate D2E/DX2 analytically  !
 ! A1    A(2,1,3)              109.4713         calculate D2E/DX2 analytically  !
 ! A2    A(2,1,4)              109.4712         calculate D2E/DX2 analytically  !
 ! A3    A(2,1,5)              109.4712         calculate D2E/DX2 analytically  !
 ! A4    A(3,1,4)              109.4712         calculate D2E/DX2 analytically  !
 ! A5    A(3,1,5)              109.4712         calculate D2E/DX2 analytically  !
 ! A6    A(4,1,5)              109.4712         calculate D2E/DX2 analytically  !
 ! A7    A(1,5,6)              109.4712         calculate D2E/DX2 analytically  !
 ! A8    A(1,5,7)              109.4712         calculate D2E/DX2 analytically  !
 ! A9    A(1,5,8)               90.1406         calculate D2E/DX2 analytically  !
 ! A10   A(6,5,7)              109.4713         calculate D2E/DX2 analytically  !
 ! A11   A(6,5,8)              117.9666         calculate D2E/DX2 analytically  !
 ! A12   A(7,5,8)              118.1779         calculate D2E/DX2 analytically  !
 ! A13   A(5,6,10)             115.8675         calculate D2E/DX2 analytically  !
 ! A14   A(6,10,9)              87.5729         calculate D2E/DX2 analytically  !
 ! D1    D(2,1,5,6)            -60.0            calculate D2E/DX2 analytically  !
 ! D2    D(2,1,5,7)             60.0            calculate D2E/DX2 analytically  !
 ! D3    D(2,1,5,8)           -179.8858         calculate D2E/DX2 analytically  !
 ! D4    D(3,1,5,6)             60.0            calculate D2E/DX2 analytically  !
 ! D5    D(3,1,5,7)           -179.9999         calculate D2E/DX2 analytically  !
 ! D6    D(3,1,5,8)            -59.8858         calculate D2E/DX2 analytically  !
 ! D7    D(4,1,5,6)           -180.0            calculate D2E/DX2 analytically  !
 ! D8    D(4,1,5,7)            -59.9999         calculate D2E/DX2 analytically  !
 ! D9    D(4,1,5,8)             60.1142         calculate D2E/DX2 analytically  !
 ! D10   D(1,5,6,10)            67.4426         calculate D2E/DX2 analytically  !
 ! D11   D(7,5,6,10)           -52.5574         calculate D2E/DX2 analytically  !
 ! D12   D(8,5,6,10)           168.4345         calculate D2E/DX2 analytically  !
 ! D13   D(5,6,10,9)            27.2871         calculate D2E/DX2 analytically  !
 --------------------------------------------------------------------------------
 Trust Radius=3.00D-01 FncErr=1.00D-07 GrdErr=1.00D-06 EigMax=2.50D+02 EigMin=1.00D-04
 Number of steps in this run=     46 maximum allowed number of steps=    100.
 Search for a saddle point of order  1.
 GradGradGradGradGradGradGradGradGradGradGradGradGradGradGradGradGradGrad

                          Input orientation:                          
 ---------------------------------------------------------------------
 Center     Atomic      Atomic             Coordinates (Angstroms)
 Number     Number       Type             X           Y           Z
 ---------------------------------------------------------------------
      1          6           0        0.000000    1.539995   -0.761773
      2          1           0        0.002011    1.894185    0.247903
      3          1           0        0.872644    1.897903   -1.267040
      4          1           0       -0.874655    1.897895   -1.263556
      5          6           0        0.000000    0.000000   -0.765552
      6          1           0        0.874655   -0.357899   -0.263768
      7          1           0       -0.872645   -0.357907   -0.260286
      8         35           0        0.000000    0.000000   -3.131557
      9          8           0        0.000000    0.000000    1.717672
     10          1           0        0.960000    0.000000    1.717672
 ---------------------------------------------------------------------
                    Distance matrix (angstroms):
                    1          2          3          4          5
     1  C    0.000000
     2  H    1.070000   0.000000
     3  H    1.070000   1.747303   0.000000
     4  H    1.070000   1.747303   1.747303   0.000000
     5  C    1.540000   2.148263   2.148263   2.148263   0.000000
     6  H    2.148263   2.468845   2.468846   3.024610   1.070000
     7  H    2.148263   2.468846   3.024610   2.468845   1.070000
     8  Br   2.826210   3.874105   2.799994   2.802937   2.366005
     9  O    2.918772   2.397532   3.643082   3.640707   2.483224
    10  H    3.072594   2.581840   3.538103   3.981920   2.662330
                    6          7          8          9         10
     6  H    0.000000
     7  H    1.747303   0.000000
     8  Br   3.019491   3.022218   0.000000
     9  O    2.195272   2.191329   4.849229   0.000000
    10  H    2.015311   2.720111   4.943341   0.960000   0.000000
 Stoichiometry    C2H6BrO(1-)
 Framework group  C1[X(C2H6BrO)]
 Deg. of freedom    24
 Full point group                 C1      NOp   1
 Largest Abelian subgroup         C1      NOp   1
 Largest concise Abelian subgroup C1      NOp   1
                         Standard orientation:                         
 ---------------------------------------------------------------------
 Center     Atomic      Atomic             Coordinates (Angstroms)
 Number     Number       Type             X           Y           Z
 ---------------------------------------------------------------------
      1          6           0       -1.075457    1.228003    0.000515
      2          1           0       -2.109362    1.503464   -0.007361
      3          1           0       -0.614321    1.598864    0.891983
      4          1           0       -0.587956    1.647892   -0.854432
      5          6           0       -0.952736   -0.306546   -0.040712
      6          1           0       -1.440238   -0.726435    0.814235
      7          1           0       -1.413871   -0.677407   -0.932181
      8         35           0        1.405854   -0.124971    0.004712
      9          8           0       -3.428177   -0.497116   -0.088387
     10          1           0       -3.444571   -0.524205    0.871091
 ---------------------------------------------------------------------
 Rotational constants (GHZ):          13.6174453           1.2955715           1.2053624
 Standard basis: 6-31+G(d,p) (6D, 7F)
 There are   121 symmetry adapted cartesian basis functions of A   symmetry.
 There are   121 symmetry adapted basis functions of A   symmetry.
   121 basis functions,   225 primitive gaussians,   121 cartesian basis functions
    31 alpha electrons       31 beta electrons
       nuclear repulsion energy       222.3341768150 Hartrees.
 NAtoms=   10 NActive=   10 NUniq=   10 SFac= 1.00D+00 NAtFMM=   60 NAOKFM=F Big=F
 Integral buffers will be    131072 words long.
 Raffenetti 2 integral format.
 Two-electron integral symmetry is turned on.
 Force inversion solution in PCM.
 ------------------------------------------------------------------------------
 Polarizable Continuum Model (PCM)
 =================================
 Model                : PCM.
 Atomic radii         : SMD-Coulomb.
 Polarization charges : Total charges.
 Charge compensation  : None.
 Solution method      : Matrix inversion.
 Cavity type          : VdW (van der Waals Surface) (Alpha=1.000).
 Cavity algorithm     : GePol (No added spheres)
                        Default sphere list used, NSphG=   10.
                        Lebedev-Laikov grids with approx.  5.0 points / Ang**2.
                        Smoothing algorithm: York/Karplus (Gamma=1.0000).
                        Polarization charges: spherical gaussians, with
                                              point-specific exponents (IZeta= 3).
                        Self-potential: point-specific (ISelfS= 7).
                        Self-field    : sphere-specific E.n sum rule (ISelfD= 2).
 1st derivatives      : Analytical E(r).r(x)/FMM algorithm (CHGder, D1EAlg=3).
                        Cavity 1st derivative terms included.
 2nd derivatives      : Analytical E(r).r(xy)/FMM algorithm (CHGder, D2EAlg=3).
                        Cavity 2nd derivative terms included.
 Solvent              : TetraHydroFuran, Eps=   7.425700 Eps(inf)=   1.974025
 ------------------------------------------------------------------------------
 Spheres list:
 ISph  on   Nord     Re0    Alpha      Xe            Ye            Ze
    1   C      1    1.8500  1.000     -1.075457      1.228003      0.000515
    2   H      2    1.2000  1.000     -2.109362      1.503464     -0.007361
    3   H      3    1.2000  1.000     -0.614321      1.598864      0.891983
    4   H      4    1.2000  1.000     -0.587956      1.647892     -0.854432
    5   C      5    1.8500  1.000     -0.952736     -0.306546     -0.040712
    6   H      6    1.2000  1.000     -1.440238     -0.726435      0.814235
    7   H      7    1.2000  1.000     -1.413871     -0.677407     -0.932181
    8  Br      8    3.0600  1.000      1.405854     -0.124971      0.004712
    9   O      9    2.2940  1.000     -3.428177     -0.497116     -0.088387
   10   H     10    1.2000  1.000     -3.444571     -0.524205      0.871091
 ------------------------------------------------------------------------------
 ------------------------------------------------------------------------------
 Atomic radii for non-electrostatic terms: SMD-CDS.
 ------------------------------------------------------------------------------
 Nuclear repulsion after PCM non-electrostatic terms =      222.3301441536 Hartrees.
 One-electron integrals computed using PRISM.
 NBasis=   121 RedAO= T EigKep=  2.59D-04  NBF=   121
 NBsUse=   121 1.00D-06 EigRej= -1.00D+00 NBFU=   121
 ExpMin= 3.50D-02 ExpMax= 5.74D+05 ExpMxC= 5.74D+03 IAcc=3 IRadAn=         5 AccDes= 0.00D+00
 Harris functional with IExCor=  402 and IRadAn=       5 diagonalized for initial guess.
 HarFok:  IExCor=  402 AccDes= 0.00D+00 IRadAn=         5 IDoV= 1 UseB2=F ITyADJ=14
 ICtDFT=  3500011 ScaDFX=  1.000000  1.000000  1.000000  1.000000
 FoFCou: FMM=F IPFlag=           0 FMFlag=      100000 FMFlg1=           0
         NFxFlg=           0 DoJE=T BraDBF=F KetDBF=T FulRan=T
         wScrn=  0.000000 ICntrl=       500 IOpCl=  0 I1Cent=   200000004 NGrid=           0
         NMat0=    1 NMatS0=      1 NMatT0=    0 NMatD0=    1 NMtDS0=    0 NMtDT0=    0
 Petite list used in FoFCou.
 Keep R1 ints in memory in canonical form, NReq=65139132.
 Requested convergence on RMS density matrix=1.00D-08 within 128 cycles.
 Requested convergence on MAX density matrix=1.00D-06.
 Requested convergence on             energy=1.00D-06.
 No special actions if energy rises.
 Inv3:  Mode=1 IEnd=     3844272.
 Iteration    1 A*A^-1 deviation from unit magnitude is 3.44D-15 for     98.
 Iteration    1 A*A^-1 deviation from orthogonality  is 1.46D-15 for    217     52.
 Iteration    1 A^-1*A deviation from unit magnitude is 2.78D-15 for    187.
 Iteration    1 A^-1*A deviation from orthogonality  is 3.62D-15 for    215    180.
 EnCoef did   100 forward-backward iterations
 Error on total polarization charges =  0.01560
 SCF Done:  E(RB3LYP) =  -2726.83572560     A.U. after   15 cycles
            NFock= 15  Conv=0.36D-08     -V/T= 2.0065
 SMD-CDS (non-electrostatic) energy       (kcal/mol) =      -2.53
 (included in total energy above)
 DoSCS=F DFT=T ScalE2(SS,OS)=  1.000000  1.000000
 Range of M.O.s used for correlation:     1   121
 NBasis=   121 NAE=    31 NBE=    31 NFC=     0 NFV=     0
 NROrb=    121 NOA=    31 NOB=    31 NVA=    90 NVB=    90

 **** Warning!!: The largest alpha MO coefficient is  0.27032843D+02

 Symmetrizing basis deriv contribution to polar:
 IMax=3 JMax=2 DiffMx= 0.00D+00
 G2DrvN: will do    11 centers at a time, making    1 passes.
 Calling FoFCou, ICntrl=  3107 FMM=F I1Cent=   0 AccDes= 0.00D+00.
 NEqPCM:  Using equilibrium solvation (IEInf=0, Eps=   7.4257, EpsInf=   1.9740)
 G2PCM: DoFxE=T DoFxN=T DoGrad=T DoDP/DQ/DG/TGxP=FFFF NFrqRd=   0 IEInf=0 SqF1=F DoCFld=F IF1Alg=4.
 End of G2Drv F.D. properties file   721 does not exist.
 End of G2Drv F.D. properties file   722 does not exist.
 End of G2Drv F.D. properties file   788 does not exist.
          IDoAtm=1111111111
 NEqPCM:  Using equilibrium solvation (IEInf=0, Eps=   7.4257, EpsInf=   1.9740)
          Differentiating once with respect to nuclear coordinates.
 Keep R1 ints in memory in canonical form, NReq=65008623.
          There are    33 degrees of freedom in the 1st order CPHF.  IDoFFX=6 NUNeed=     0.
     27 vectors produced by pass  0 Test12= 8.45D-15 3.03D-09 XBig12= 1.05D-01 1.97D-01.
 AX will form    27 AO Fock derivatives at one time.
     27 vectors produced by pass  1 Test12= 8.45D-15 3.03D-09 XBig12= 5.87D-03 2.39D-02.
     27 vectors produced by pass  2 Test12= 8.45D-15 3.03D-09 XBig12= 1.06D-04 2.04D-03.
     27 vectors produced by pass  3 Test12= 8.45D-15 3.03D-09 XBig12= 1.15D-06 2.10D-04.
     27 vectors produced by pass  4 Test12= 8.45D-15 3.03D-09 XBig12= 2.32D-09 7.13D-06.
     24 vectors produced by pass  5 Test12= 8.45D-15 3.03D-09 XBig12= 3.31D-12 3.21D-07.
      4 vectors produced by pass  6 Test12= 8.45D-15 3.03D-09 XBig12= 3.17D-15 6.77D-09.
 InvSVY:  IOpt=1 It=  1 EMax= 1.67D-15
 Solved reduced A of dimension   163 with    27 vectors.
 End of Minotr F.D. properties file   721 does not exist.
 End of Minotr F.D. properties file   722 does not exist.
 End of Minotr F.D. properties file   788 does not exist.

 **********************************************************************

            Population analysis using the SCF Density.

 **********************************************************************

 Orbital symmetries:
       Occupied  (A) (A) (A) (A) (A) (A) (A) (A) (A) (A) (A) (A)
                 (A) (A) (A) (A) (A) (A) (A) (A) (A) (A) (A) (A)
                 (A) (A) (A) (A) (A) (A) (A)
       Virtual   (A) (A) (A) (A) (A) (A) (A) (A) (A) (A) (A) (A)
                 (A) (A) (A) (A) (A) (A) (A) (A) (A) (A) (A) (A)
                 (A) (A) (A) (A) (A) (A) (A) (A) (A) (A) (A) (A)
                 (A) (A) (A) (A) (A) (A) (A) (A) (A) (A) (A) (A)
                 (A) (A) (A) (A) (A) (A) (A) (A) (A) (A) (A) (A)
                 (A) (A) (A) (A) (A) (A) (A) (A) (A) (A) (A) (A)
                 (A) (A) (A) (A) (A) (A) (A) (A) (A) (A) (A) (A)
                 (A) (A) (A) (A) (A) (A)
 The electronic state is 1-A.
 Alpha  occ. eigenvalues -- -482.84957 -61.80995 -56.32748 -56.32490 -56.32488
 Alpha  occ. eigenvalues --  -19.01897 -10.20648 -10.13868  -8.51662  -6.46653
 Alpha  occ. eigenvalues --   -6.45840  -6.45809  -2.58244  -2.58034  -2.58012
 Alpha  occ. eigenvalues --   -2.57365  -2.57364  -0.82357  -0.73769  -0.67031
 Alpha  occ. eigenvalues --   -0.58111  -0.42681  -0.39259  -0.34236  -0.33529
 Alpha  occ. eigenvalues --   -0.30714  -0.27629  -0.23317  -0.22640  -0.17337
 Alpha  occ. eigenvalues --   -0.17249
 Alpha virt. eigenvalues --   -0.03242   0.02806   0.04920   0.05550   0.06673
 Alpha virt. eigenvalues --    0.08607   0.08760   0.09699   0.10478   0.10805
 Alpha virt. eigenvalues --    0.13665   0.15620   0.16488   0.19440   0.22762
 Alpha virt. eigenvalues --    0.24005   0.24867   0.26801   0.27129   0.27684
 Alpha virt. eigenvalues --    0.30942   0.36283   0.37933   0.42668   0.48344
 Alpha virt. eigenvalues --    0.52612   0.52769   0.53589   0.54626   0.55997
 Alpha virt. eigenvalues --    0.64399   0.65934   0.66622   0.68895   0.72823
 Alpha virt. eigenvalues --    0.78410   0.81785   0.85326   0.91975   0.96051
 Alpha virt. eigenvalues --    1.01786   1.03293   1.08819   1.12778   1.16744
 Alpha virt. eigenvalues --    1.24168   1.26095   1.29268   1.32629   1.37747
 Alpha virt. eigenvalues --    1.39233   1.43753   1.70340   1.71492   1.71703
 Alpha virt. eigenvalues --    1.73890   1.77306   1.87089   1.89441   1.96370
 Alpha virt. eigenvalues --    2.00789   2.08746   2.15478   2.16869   2.19999
 Alpha virt. eigenvalues --    2.25522   2.29223   2.38600   2.44820   2.53853
 Alpha virt. eigenvalues --    2.55995   2.67400   2.70408   2.77255   2.78139
 Alpha virt. eigenvalues --    2.81185   2.89413   2.95945   2.97215   3.35246
 Alpha virt. eigenvalues --    3.40767   3.45444   3.55461   3.57204   3.60614
 Alpha virt. eigenvalues --    4.17708   4.39746   4.63181   8.86665  76.84480
          Condensed to atoms (all electrons):
               1          2          3          4          5          6
     1  C    5.278814   0.434113   0.410107   0.406794   0.136333  -0.028279
     2  H    0.434113   0.527717  -0.030718  -0.029598  -0.075552  -0.001369
     3  H    0.410107  -0.030718   0.555320  -0.029547  -0.040799  -0.005750
     4  H    0.406794  -0.029598  -0.029547   0.551428  -0.039379   0.004610
     5  C    0.136333  -0.075552  -0.040799  -0.039379   5.350481   0.375985
     6  H   -0.028279  -0.001369  -0.005750   0.004610   0.375985   0.525354
     7  H   -0.034311  -0.000481   0.004344  -0.005832   0.411341  -0.033245
     8  Br  -0.041107   0.013409  -0.016089  -0.014680   0.043273  -0.013339
     9  O   -0.047498  -0.022156   0.001297   0.003438  -0.051621   0.001026
    10  H   -0.002454   0.000046  -0.000087   0.000012   0.010563   0.002847
               7          8          9         10
     1  C   -0.034311  -0.041107  -0.047498  -0.002454
     2  H   -0.000481   0.013409  -0.022156   0.000046
     3  H    0.004344  -0.016089   0.001297  -0.000087
     4  H   -0.005832  -0.014680   0.003438   0.000012
     5  C    0.411341   0.043273  -0.051621   0.010563
     6  H   -0.033245  -0.013339   0.001026   0.002847
     7  H    0.492815  -0.019728  -0.030519   0.000064
     8  Br  -0.019728  35.501496   0.021069   0.001537
     9  O   -0.030519   0.021069   8.961516   0.203676
    10  H    0.000064   0.001537   0.203676   0.511572
 Mulliken charges:
               1
     1  C   -0.512511
     2  H    0.184590
     3  H    0.151923
     4  H    0.152755
     5  C   -0.120626
     6  H    0.172161
     7  H    0.215551
     8  Br  -0.475841
     9  O   -1.040227
    10  H    0.272224
 Sum of Mulliken charges =  -1.00000
 Mulliken charges with hydrogens summed into heavy atoms:
               1
     1  C   -0.023243
     5  C    0.267087
     8  Br  -0.475841
     9  O   -0.768004
 APT charges:
               1
     1  C   -1.113282
     2  H    0.530667
     3  H    0.304772
     4  H    0.306728
     5  C   -0.710480
     6  H    0.455912
     7  H    0.533414
     8  Br  -0.438647
     9  O   -1.263753
    10  H    0.394669
 Sum of APT charges =  -1.00000
 APT charges with hydrogens summed into heavy atoms:
               1
     1  C    0.028885
     5  C    0.278846
     8  Br  -0.438647
     9  O   -0.869084
 Electronic spatial extent (au):  <R**2>=            924.0357
 Charge=             -1.0000 electrons
 Dipole moment (field-independent basis, Debye):
    X=              7.8114    Y=              2.1735    Z=              1.6675  Tot=              8.2779
 Quadrupole moment (field-independent basis, Debye-Ang):
   XX=            -91.6681   YY=            -45.9170   ZZ=            -41.3184
   XY=             -5.2287   XZ=             -6.2080   YZ=             -1.0150
 Traceless Quadrupole moment (field-independent basis, Debye-Ang):
   XX=            -32.0336   YY=             13.7175   ZZ=             18.3161
   XY=             -5.2287   XZ=             -6.2080   YZ=             -1.0150
 Octapole moment (field-independent basis, Debye-Ang**2):
  XXX=            207.9171  YYY=             -0.2879  ZZZ=              1.7227  XYY=             20.7258
  XXY=             24.9225  XXZ=             22.7445  XZZ=              7.6741  YZZ=             -1.3869
  YYZ=              0.9463  XYZ=              3.5254
 Hexadecapole moment (field-independent basis, Debye-Ang**3):
 XXXX=          -1625.0661 YYYY=           -176.5010 ZZZZ=            -72.1375 XXXY=            -93.5703
 XXXZ=            -82.7773 YYYX=            -13.4141 YYYZ=             -1.5027 ZZZX=             -6.3097
 ZZZY=             -1.0836 XXYY=           -222.5155 XXZZ=           -163.7988 YYZZ=            -39.5383
 XXYZ=            -12.6399 YYXZ=             -3.6047 ZZXY=              1.6448
 N-N= 2.223301441536D+02 E-N=-6.951618532051D+03  KE= 2.709325354648D+03
  Exact polarizability:       0.000       0.000       0.000       0.000       0.000       0.000
 Approx polarizability:     237.917      11.616      74.025       2.819       0.264      70.781
 D2PCM: PCM CHGder 2nd derivatives, FixD1E=F FixD2E=F DoIter=F DoCFld=F I1PDM=0
 Calling FoFJK, ICntrl=    100127 FMM=F ISym2X=0 I1Cent= 0 IOpClX= 0 NMat=1 NMatS=1 NMatT=0.
 ***** Axes restored to original set *****
 -------------------------------------------------------------------
 Center     Atomic                   Forces (Hartrees/Bohr)
 Number     Number              X              Y              Z
 -------------------------------------------------------------------
      1        6           0.000294736   -0.020479312    0.000905974
      2        1          -0.000556517    0.002833303    0.016722491
      3        1           0.011785563    0.008971942   -0.007527316
      4        1          -0.011731738    0.008829788   -0.007256248
      5        6          -0.000925355    0.060842372    0.003964591
      6        1           0.016039765   -0.019822001   -0.016675969
      7        1          -0.015909757   -0.019129045   -0.013646884
      8       35           0.000118479   -0.019914275    0.017573518
      9        8          -0.007890182   -0.002201157    0.001754954
     10        1           0.008775005    0.000068386    0.004184889
 -------------------------------------------------------------------
 Cartesian Forces:  Max     0.060842372 RMS     0.015889867
 FormGI is forming the generalized inverse of G from B-inverse, IUseBI=4.

 GradGradGradGradGradGradGradGradGradGradGradGradGradGradGradGradGradGrad
 Berny optimization.
 Internal  Forces:  Max     0.036629795 RMS     0.013086232
 Search for a saddle point.
 Step number   1 out of a maximum of   46
 All quantities printed in internal units (Hartrees-Bohrs-Radians)
 Swapping is turned off.
 Second derivative matrix not updated -- analytic derivatives used.
 ITU=  0
     Eigenvalues ---   -0.01814  -0.00162   0.00362   0.00550   0.00829
     Eigenvalues ---    0.03114   0.03448   0.04596   0.04873   0.06442
     Eigenvalues ---    0.09181   0.11327   0.12263   0.13982   0.17154
     Eigenvalues ---    0.19059   0.28789   0.30323   0.38898   0.39183
     Eigenvalues ---    0.39503   0.40238   0.42014   0.55019
 Eigenvectors required to have negative eigenvalues:
                          R7        A14       A9        A13       D10
   1                    0.87288  -0.20819  -0.19984  -0.15856   0.11301
                          R8        D1        D8        D5        D4
   1                   -0.10293  -0.10160   0.10113   0.10023  -0.09967
 RFO step:  Lambda0=1.385292194D-02 Lambda=-3.90124355D-02.
 Linear search not attempted -- option 19 set.
 Maximum step size (   0.300) exceeded in Quadratic search.
    -- Step size scaled by   0.441
 Iteration  1 RMS(Cart)=  0.08472278 RMS(Int)=  0.01947493
 Iteration  2 RMS(Cart)=  0.02791399 RMS(Int)=  0.00356425
 Iteration  3 RMS(Cart)=  0.00150756 RMS(Int)=  0.00311300
 Iteration  4 RMS(Cart)=  0.00000197 RMS(Int)=  0.00311300
 Iteration  5 RMS(Cart)=  0.00000000 RMS(Int)=  0.00311300
 Variable       Old X    -DE/DX   Delta X   Delta X   Delta X     New X
                                 (Linear)    (Quad)   (Total)
    R1        2.02201   0.01672   0.00000   0.01760   0.01760   2.03961
    R2        2.02201   0.01617   0.00000   0.01611   0.01611   2.03811
    R3        2.02201   0.01594   0.00000   0.01638   0.01638   2.03838
    R4        2.91018   0.00018   0.00000  -0.03837  -0.03837   2.87181
    R5        2.02201   0.01612   0.00000   0.00635   0.00635   2.02836
    R6        2.02201   0.01293   0.00000   0.00638   0.00638   2.02839
    R7        4.47110  -0.01757   0.00000   0.20698   0.20698   4.67808
    R8        3.80839   0.00548   0.00000   0.01917   0.01917   3.82756
    R9        1.81414   0.00791   0.00000   0.00486   0.00486   1.81900
    A1        1.91063  -0.00009   0.00000  -0.00035  -0.00027   1.91036
    A2        1.91063  -0.00042   0.00000   0.00070   0.00075   1.91138
    A3        1.91063  -0.00606   0.00000  -0.01865  -0.01858   1.89205
    A4        1.91063  -0.00418   0.00000  -0.00847  -0.00860   1.90203
    A5        1.91063   0.00552   0.00000   0.01516   0.01513   1.92576
    A6        1.91063   0.00523   0.00000   0.01160   0.01156   1.92219
    A7        1.91063   0.00955   0.00000   0.09109   0.08527   1.99590
    A8        1.91063   0.00910   0.00000   0.07996   0.07226   1.98289
    A9        1.57325   0.03663   0.00000   0.01663   0.02015   1.59340
   A10        1.91063  -0.00037   0.00000   0.05034   0.03791   1.94854
   A11        2.05891  -0.02471   0.00000  -0.11580  -0.11709   1.94182
   A12        2.06259  -0.01679   0.00000  -0.08355  -0.08644   1.97616
   A13        2.02227   0.00973   0.00000  -0.03508  -0.03508   1.98719
   A14        1.52844   0.00241   0.00000  -0.05176  -0.05176   1.47667
    D1       -1.04720  -0.00719   0.00000  -0.08736  -0.08921  -1.13641
    D2        1.04720   0.00378   0.00000   0.07905   0.08135   1.12854
    D3       -3.13960   0.00255   0.00000   0.01219   0.01177  -3.12783
    D4        1.04720  -0.00764   0.00000  -0.08992  -0.09184   0.95536
    D5       -3.14159   0.00334   0.00000   0.07649   0.07872  -3.06287
    D6       -1.04520   0.00211   0.00000   0.00963   0.00915  -1.03606
    D7       -3.14159  -0.00618   0.00000  -0.08390  -0.08571   3.05588
    D8       -1.04720   0.00480   0.00000   0.08251   0.08485  -0.96235
    D9        1.04919   0.00357   0.00000   0.01565   0.01527   1.06446
   D10        1.17710  -0.00428   0.00000   0.14849   0.15277   1.32986
   D11       -0.91730  -0.02105   0.00000  -0.03605  -0.03470  -0.95200
   D12        2.93974   0.03490   0.00000   0.17071   0.16508   3.10482
   D13        0.47625   0.00452   0.00000  -0.29025  -0.29025   0.18600
         Item               Value     Threshold  Converged?
 Maximum Force            0.036630     0.000450     NO 
 RMS     Force            0.013086     0.000300     NO 
 Maximum Displacement     0.378109     0.001800     NO 
 RMS     Displacement     0.090525     0.001200     NO 
 Predicted change in Energy=-9.869978D-03
 GradGradGradGradGradGradGradGradGradGradGradGradGradGradGradGradGradGrad

                          Input orientation:                          
 ---------------------------------------------------------------------
 Center     Atomic      Atomic             Coordinates (Angstroms)
 Number     Number       Type             X           Y           Z
 ---------------------------------------------------------------------
      1          6           0       -0.019245    1.579222   -0.762053
      2          1           0       -0.025547    1.963980    0.246333
      3          1           0        0.854792    1.941908   -1.279478
      4          1           0       -0.901010    1.918359   -1.282625
      5          6           0       -0.002088    0.061049   -0.696279
      6          1           0        0.888878   -0.353281   -0.264296
      7          1           0       -0.887079   -0.360348   -0.258837
      8         35           0        0.038530   -0.101510   -3.166137
      9          8           0        0.046197    0.064879    1.679303
     10          1           0        0.968581   -0.200087    1.753785
 ---------------------------------------------------------------------
                    Distance matrix (angstroms):
                    1          2          3          4          5
     1  C    0.000000
     2  H    1.079314   0.000000
     3  H    1.078523   1.761699   0.000000
     4  H    1.078665   1.762450   1.755963   0.000000
     5  C    1.519694   2.123726   2.147556   2.145103   0.000000
     6  H    2.192492   2.542954   2.509911   3.066113   1.073359
     7  H    2.183642   2.529809   3.062059   2.498168   1.073378
     8  Br   2.933909   3.989399   2.898503   2.917229   2.475536
     9  O    2.873627   2.380154   3.596032   3.620167   2.376075
    10  H    3.235920   2.818490   3.715074   4.147646   2.648245
                    6          7          8          9         10
     6  H    0.000000
     7  H    1.775980   0.000000
     8  Br   3.034331   3.062049   0.000000
     9  O    2.159292   2.192762   4.848302   0.000000
    10  H    2.025455   2.742225   5.008028   0.962572   0.000000
 Stoichiometry    C2H6BrO(1-)
 Framework group  C1[X(C2H6BrO)]
 Deg. of freedom    24
 Full point group                 C1      NOp   1
 Largest Abelian subgroup         C1      NOp   1
 Largest concise Abelian subgroup C1      NOp   1
                         Standard orientation:                         
 ---------------------------------------------------------------------
 Center     Atomic      Atomic             Coordinates (Angstroms)
 Number     Number       Type             X           Y           Z
 ---------------------------------------------------------------------
      1          6           0       -1.149569    1.263716    0.019764
      2          1           0       -2.195755    1.529074    0.020261
      3          1           0       -0.688761    1.617625    0.928399
      4          1           0       -0.661186    1.725216   -0.824048
      5          6           0       -1.038248   -0.248964   -0.074447
      6          1           0       -1.430005   -0.775419    0.774948
      7          1           0       -1.412647   -0.650995   -0.996583
      8         35           0        1.433040   -0.128318    0.005923
      9          8           0       -3.398515   -0.522583   -0.075690
     10          1           0       -3.453022   -0.862213    0.823324
 ---------------------------------------------------------------------
 Rotational constants (GHZ):          12.8843440           1.2717466           1.1789640
 Standard basis: 6-31+G(d,p) (6D, 7F)
 There are   121 symmetry adapted cartesian basis functions of A   symmetry.
 There are   121 symmetry adapted basis functions of A   symmetry.
   121 basis functions,   225 primitive gaussians,   121 cartesian basis functions
    31 alpha electrons       31 beta electrons
       nuclear repulsion energy       218.6183216372 Hartrees.
 NAtoms=   10 NActive=   10 NUniq=   10 SFac= 1.00D+00 NAtFMM=   60 NAOKFM=F Big=F
 Integral buffers will be    131072 words long.
 Raffenetti 2 integral format.
 Two-electron integral symmetry is turned on.
 ------------------------------------------------------------------------------
 Polarizable Continuum Model (PCM)
 =================================
 Model                : PCM.
 Atomic radii         : SMD-Coulomb.
 Polarization charges : Total charges.
 Charge compensation  : None.
 Solution method      : Matrix inversion.
 Cavity type          : VdW (van der Waals Surface) (Alpha=1.000).
 Cavity algorithm     : GePol (No added spheres)
                        Default sphere list used, NSphG=   10.
                        Lebedev-Laikov grids with approx.  5.0 points / Ang**2.
                        Smoothing algorithm: York/Karplus (Gamma=1.0000).
                        Polarization charges: spherical gaussians, with
                                              point-specific exponents (IZeta= 3).
                        Self-potential: point-specific (ISelfS= 7).
                        Self-field    : sphere-specific E.n sum rule (ISelfD= 2).
 1st derivatives      : Analytical E(r).r(x)/FMM algorithm (CHGder, D1EAlg=3).
                        Cavity 1st derivative terms included.
 Solvent              : TetraHydroFuran, Eps=   7.425700 Eps(inf)=   1.974025
 ------------------------------------------------------------------------------
 Spheres list:
 ISph  on   Nord     Re0    Alpha      Xe            Ye            Ze
    1   C      1    1.8500  1.000     -1.149569      1.263716      0.019764
    2   H      2    1.2000  1.000     -2.195755      1.529074      0.020261
    3   H      3    1.2000  1.000     -0.688761      1.617625      0.928399
    4   H      4    1.2000  1.000     -0.661186      1.725216     -0.824048
    5   C      5    1.8500  1.000     -1.038248     -0.248964     -0.074447
    6   H      6    1.2000  1.000     -1.430005     -0.775419      0.774948
    7   H      7    1.2000  1.000     -1.412647     -0.650995     -0.996583
    8  Br      8    3.0600  1.000      1.433040     -0.128318      0.005923
    9   O      9    2.2940  1.000     -3.398515     -0.522583     -0.075690
   10   H     10    1.2000  1.000     -3.453022     -0.862213      0.823324
 ------------------------------------------------------------------------------
 ------------------------------------------------------------------------------
 Atomic radii for non-electrostatic terms: SMD-CDS.
 ------------------------------------------------------------------------------
 Nuclear repulsion after PCM non-electrostatic terms =      218.6141161426 Hartrees.
 One-electron integrals computed using PRISM.
 NBasis=   121 RedAO= T EigKep=  2.38D-04  NBF=   121
 NBsUse=   121 1.00D-06 EigRej= -1.00D+00 NBFU=   121
 Initial guess from the checkpoint file:  "/scratch/global/Gau-44407.chk"
 B after Tr=    -0.000000    0.000000   -0.000000
         Rot=    0.999866   -0.015694   -0.000020   -0.004679 Ang=  -1.88 deg.
 ExpMin= 3.50D-02 ExpMax= 5.74D+05 ExpMxC= 5.74D+03 IAcc=3 IRadAn=         5 AccDes= 0.00D+00
 Harris functional with IExCor=  402 and IRadAn=       5 diagonalized for initial guess.
 HarFok:  IExCor=  402 AccDes= 0.00D+00 IRadAn=         5 IDoV= 1 UseB2=F ITyADJ=14
 ICtDFT=  3500011 ScaDFX=  1.000000  1.000000  1.000000  1.000000
 FoFCou: FMM=F IPFlag=           0 FMFlag=      100000 FMFlg1=           0
         NFxFlg=           0 DoJE=T BraDBF=F KetDBF=T FulRan=T
         wScrn=  0.000000 ICntrl=       500 IOpCl=  0 I1Cent=   200000004 NGrid=           0
         NMat0=    1 NMatS0=      1 NMatT0=    0 NMatD0=    1 NMtDS0=    0 NMtDT0=    0
 Petite list used in FoFCou.
 Keep R1 ints in memory in canonical form, NReq=65139132.
 Requested convergence on RMS density matrix=1.00D-08 within 128 cycles.
 Requested convergence on MAX density matrix=1.00D-06.
 Requested convergence on             energy=1.00D-06.
 No special actions if energy rises.
 Inv3:  Mode=1 IEnd=     3919347.
 Iteration    1 A*A^-1 deviation from unit magnitude is 3.00D-15 for    541.
 Iteration    1 A*A^-1 deviation from orthogonality  is 1.93D-15 for    187     56.
 Iteration    1 A^-1*A deviation from unit magnitude is 3.00D-15 for    541.
 Iteration    1 A^-1*A deviation from orthogonality  is 4.31D-15 for    251    187.
 Error on total polarization charges =  0.01607
 SCF Done:  E(RB3LYP) =  -2726.84573158     A.U. after   13 cycles
            NFock= 13  Conv=0.35D-08     -V/T= 2.0065
 SMD-CDS (non-electrostatic) energy       (kcal/mol) =      -2.64
 (included in total energy above)
 D1PCM: PCM CHGder 1st derivatives, ID1Alg=3 FixD1E=F DoIter=F DoCFld=F I1PDM=0.
 Calling FoFJK, ICntrl=      2127 FMM=F ISym2X=0 I1Cent= 0 IOpClX= 0 NMat=1 NMatS=1 NMatT=0.
 ***** Axes restored to original set *****
 -------------------------------------------------------------------
 Center     Atomic                   Forces (Hartrees/Bohr)
 Number     Number              X              Y              Z
 -------------------------------------------------------------------
      1        6           0.000268422   -0.012740366   -0.000871551
      2        1          -0.000477422    0.002066022    0.010189917
      3        1           0.007196490    0.005682649   -0.004440107
      4        1          -0.007200567    0.005366959   -0.004518179
      5        6           0.000568911    0.040000105    0.012815336
      6        1           0.010508757   -0.012983518   -0.017676790
      7        1          -0.010485970   -0.013857977   -0.014753653
      8       35          -0.000616379   -0.012217943    0.015530054
      9        8          -0.005472626    0.000698385   -0.000407840
     10        1           0.005710382   -0.002014317    0.004132813
 -------------------------------------------------------------------
 Cartesian Forces:  Max     0.040000105 RMS     0.011294898

 GradGradGradGradGradGradGradGradGradGradGradGradGradGradGradGradGradGrad
 Berny optimization.
 FormGI is forming the generalized inverse of G from B-inverse, IUseBI=4.
 Internal  Forces:  Max     0.025408022 RMS     0.009028242
 Search for a saddle point.
 Step number   2 out of a maximum of   46
 All quantities printed in internal units (Hartrees-Bohrs-Radians)
 Swapping is turned off.
 Update second derivatives using D2CorX and points    1    2
 ITU=  0  0
     Eigenvalues ---   -0.02075  -0.00057   0.00362   0.00545   0.00847
     Eigenvalues ---    0.02989   0.03469   0.04598   0.04872   0.06420
     Eigenvalues ---    0.09044   0.11287   0.12256   0.14010   0.17136
     Eigenvalues ---    0.19105   0.28625   0.30217   0.38898   0.39174
     Eigenvalues ---    0.39497   0.40230   0.42004   0.55013
 Eigenvectors required to have negative eigenvalues:
                          R7        A14       A13       A9        D10
   1                    0.85881  -0.19891  -0.19176  -0.18769   0.14367
                          D1        D8        D5        D4        D7
   1                   -0.11867   0.11741   0.11680  -0.11621  -0.11560
 RFO step:  Lambda0=6.434630131D-03 Lambda=-2.61528174D-02.
 Linear search not attempted -- option 19 set.
 Maximum step size (   0.300) exceeded in Quadratic search.
    -- Step size scaled by   0.579
 Iteration  1 RMS(Cart)=  0.09176722 RMS(Int)=  0.03266650
 Iteration  2 RMS(Cart)=  0.04384110 RMS(Int)=  0.00629446
 Iteration  3 RMS(Cart)=  0.00441952 RMS(Int)=  0.00366152
 Iteration  4 RMS(Cart)=  0.00000827 RMS(Int)=  0.00366151
 Iteration  5 RMS(Cart)=  0.00000000 RMS(Int)=  0.00366151
 Variable       Old X    -DE/DX   Delta X   Delta X   Delta X     New X
                                 (Linear)    (Quad)   (Total)
    R1        2.03961   0.01027   0.00000   0.01448   0.01448   2.05409
    R2        2.03811   0.00988   0.00000   0.01411   0.01411   2.05222
    R3        2.03838   0.00974   0.00000   0.01421   0.01421   2.05259
    R4        2.87181   0.00038   0.00000  -0.03133  -0.03133   2.84048
    R5        2.02836   0.00881   0.00000   0.00024   0.00024   2.02859
    R6        2.02839   0.00807   0.00000   0.00255   0.00255   2.03094
    R7        4.67808  -0.01470   0.00000   0.13735   0.13735   4.81543
    R8        3.82756   0.00360   0.00000   0.05775   0.05775   3.88531
    R9        1.81900   0.00547   0.00000   0.00511   0.00511   1.82411
    A1        1.91036  -0.00021   0.00000  -0.00075  -0.00071   1.90966
    A2        1.91138  -0.00038   0.00000  -0.00102  -0.00099   1.91039
    A3        1.89205  -0.00378   0.00000  -0.01270  -0.01267   1.87938
    A4        1.90203  -0.00269   0.00000  -0.00623  -0.00632   1.89571
    A5        1.92576   0.00362   0.00000   0.01208   0.01206   1.93782
    A6        1.92219   0.00342   0.00000   0.00856   0.00853   1.93072
    A7        1.99590   0.00669   0.00000   0.08263   0.07331   2.06921
    A8        1.98289   0.00579   0.00000   0.07098   0.06046   2.04335
    A9        1.59340   0.02541   0.00000   0.03730   0.04136   1.63476
   A10        1.94854  -0.00132   0.00000   0.05226   0.03862   1.98716
   A11        1.94182  -0.01931   0.00000  -0.14875  -0.14890   1.79291
   A12        1.97616  -0.01495   0.00000  -0.11452  -0.11660   1.85955
   A13        1.98719   0.00297   0.00000  -0.10597  -0.10597   1.88121
   A14        1.47667  -0.00011   0.00000  -0.01711  -0.01711   1.45956
    D1       -1.13641  -0.00596   0.00000  -0.11842  -0.12016  -1.25657
    D2        1.12854   0.00397   0.00000   0.10304   0.10524   1.23378
    D3       -3.12783   0.00131   0.00000   0.01067   0.01022  -3.11761
    D4        0.95536  -0.00639   0.00000  -0.11999  -0.12177   0.83360
    D5       -3.06287   0.00355   0.00000   0.10148   0.10364  -2.95923
    D6       -1.03606   0.00088   0.00000   0.00910   0.00862  -1.02744
    D7        3.05588  -0.00521   0.00000  -0.11448  -0.11619   2.93969
    D8       -0.96235   0.00472   0.00000   0.10699   0.10921  -0.85314
    D9        1.06446   0.00206   0.00000   0.01461   0.01419   1.07866
   D10        1.32986  -0.00156   0.00000   0.21297   0.21715   1.54701
   D11       -0.95200  -0.01471   0.00000  -0.01298  -0.01133  -0.96332
   D12        3.10482   0.02179   0.00000   0.21765   0.21181  -2.96655
   D13        0.18600   0.00156   0.00000  -0.36483  -0.36483  -0.17883
         Item               Value     Threshold  Converged?
 Maximum Force            0.025408     0.000450     NO 
 RMS     Force            0.009028     0.000300     NO 
 Maximum Displacement     0.420634     0.001800     NO 
 RMS     Displacement     0.107149     0.001200     NO 
 Predicted change in Energy=-1.048348D-02
 GradGradGradGradGradGradGradGradGradGradGradGradGradGradGradGradGradGrad

                          Input orientation:                          
 ---------------------------------------------------------------------
 Center     Atomic      Atomic             Coordinates (Angstroms)
 Number     Number       Type             X           Y           Z
 ---------------------------------------------------------------------
      1          6           0       -0.034917    1.624798   -0.754183
      2          1           0       -0.039725    2.039170    0.250701
      3          1           0        0.829064    1.999474   -1.295038
      4          1           0       -0.933887    1.936213   -1.278270
      5          6           0        0.013902    0.127586   -0.630368
      6          1           0        0.928467   -0.330884   -0.305179
      7          1           0       -0.871024   -0.362338   -0.267169
      8         35           0        0.065629   -0.242697   -3.151007
      9          8           0        0.115089    0.145525    1.651813
     10          1           0        0.889413   -0.422677    1.748417
 ---------------------------------------------------------------------
                    Distance matrix (angstroms):
                    1          2          3          4          5
     1  C    0.000000
     2  H    1.086976   0.000000
     3  H    1.085988   1.773606   0.000000
     4  H    1.086184   1.774227   1.764165   0.000000
     5  C    1.503116   2.105543   2.147147   2.142245   0.000000
     6  H    2.225849   2.619838   2.533825   3.091116   1.073486
     7  H    2.210197   2.593547   3.086255   2.511895   1.074725
     8  Br   3.040134   4.097516   3.009118   3.042010   2.548216
     9  O    2.828351   2.360714   3.553986   3.590586   2.284494
    10  H    3.362967   3.027728   3.890125   4.248485   2.593825
                    6          7          8          9         10
     6  H    0.000000
     7  H    1.800168   0.000000
     8  Br   2.975064   3.034495   0.000000
     9  O    2.172181   2.216492   4.818740   0.000000
    10  H    2.056017   2.676820   4.971456   0.965279   0.000000
 Stoichiometry    C2H6BrO(1-)
 Framework group  C1[X(C2H6BrO)]
 Deg. of freedom    24
 Full point group                 C1      NOp   1
 Largest Abelian subgroup         C1      NOp   1
 Largest concise Abelian subgroup C1      NOp   1
                         Standard orientation:                         
 ---------------------------------------------------------------------
 Center     Atomic      Atomic             Coordinates (Angstroms)
 Number     Number       Type             X           Y           Z
 ---------------------------------------------------------------------
      1          6           0       -1.231627    1.305749    0.032505
      2          1           0       -2.292452    1.542589    0.041137
      3          1           0       -0.773610    1.667066    0.948495
      4          1           0       -0.757442    1.799845   -0.810592
      5          6           0       -1.098045   -0.186799   -0.085026
      6          1           0       -1.351313   -0.793105    0.763868
      7          1           0       -1.361062   -0.628666   -1.028747
      8         35           0        1.447942   -0.130073    0.005207
      9          8           0       -3.350721   -0.565488   -0.054013
     10          1           0       -3.358278   -1.224983    0.650808
 ---------------------------------------------------------------------
 Rotational constants (GHZ):          12.0263426           1.2669033           1.1661421
 Standard basis: 6-31+G(d,p) (6D, 7F)
 There are   121 symmetry adapted cartesian basis functions of A   symmetry.
 There are   121 symmetry adapted basis functions of A   symmetry.
   121 basis functions,   225 primitive gaussians,   121 cartesian basis functions
    31 alpha electrons       31 beta electrons
       nuclear repulsion energy       216.3403076713 Hartrees.
 NAtoms=   10 NActive=   10 NUniq=   10 SFac= 1.00D+00 NAtFMM=   60 NAOKFM=F Big=F
 Integral buffers will be    131072 words long.
 Raffenetti 2 integral format.
 Two-electron integral symmetry is turned on.
 ------------------------------------------------------------------------------
 Polarizable Continuum Model (PCM)
 =================================
 Model                : PCM.
 Atomic radii         : SMD-Coulomb.
 Polarization charges : Total charges.
 Charge compensation  : None.
 Solution method      : Matrix inversion.
 Cavity type          : VdW (van der Waals Surface) (Alpha=1.000).
 Cavity algorithm     : GePol (No added spheres)
                        Default sphere list used, NSphG=   10.
                        Lebedev-Laikov grids with approx.  5.0 points / Ang**2.
                        Smoothing algorithm: York/Karplus (Gamma=1.0000).
                        Polarization charges: spherical gaussians, with
                                              point-specific exponents (IZeta= 3).
                        Self-potential: point-specific (ISelfS= 7).
                        Self-field    : sphere-specific E.n sum rule (ISelfD= 2).
 1st derivatives      : Analytical E(r).r(x)/FMM algorithm (CHGder, D1EAlg=3).
                        Cavity 1st derivative terms included.
 Solvent              : TetraHydroFuran, Eps=   7.425700 Eps(inf)=   1.974025
 ------------------------------------------------------------------------------
 Spheres list:
 ISph  on   Nord     Re0    Alpha      Xe            Ye            Ze
    1   C      1    1.8500  1.000     -1.231627      1.305749      0.032505
    2   H      2    1.2000  1.000     -2.292452      1.542589      0.041137
    3   H      3    1.2000  1.000     -0.773610      1.667066      0.948495
    4   H      4    1.2000  1.000     -0.757442      1.799845     -0.810592
    5   C      5    1.8500  1.000     -1.098045     -0.186799     -0.085026
    6   H      6    1.2000  1.000     -1.351313     -0.793105      0.763868
    7   H      7    1.2000  1.000     -1.361062     -0.628666     -1.028747
    8  Br      8    3.0600  1.000      1.447942     -0.130073      0.005207
    9   O      9    2.2940  1.000     -3.350721     -0.565488     -0.054013
   10   H     10    1.2000  1.000     -3.358278     -1.224983      0.650808
 ------------------------------------------------------------------------------
 ------------------------------------------------------------------------------
 Atomic radii for non-electrostatic terms: SMD-CDS.
 ------------------------------------------------------------------------------
 Nuclear repulsion after PCM non-electrostatic terms =      216.3359089481 Hartrees.
 One-electron integrals computed using PRISM.
 NBasis=   121 RedAO= T EigKep=  2.27D-04  NBF=   121
 NBsUse=   121 1.00D-06 EigRej= -1.00D+00 NBFU=   121
 Initial guess from the checkpoint file:  "/scratch/global/Gau-44407.chk"
 B after Tr=    -0.000000   -0.000000   -0.000000
         Rot=    0.999909   -0.011748   -0.000335   -0.006612 Ang=  -1.55 deg.
 ExpMin= 3.50D-02 ExpMax= 5.74D+05 ExpMxC= 5.74D+03 IAcc=3 IRadAn=         5 AccDes= 0.00D+00
 Harris functional with IExCor=  402 and IRadAn=       5 diagonalized for initial guess.
 HarFok:  IExCor=  402 AccDes= 0.00D+00 IRadAn=         5 IDoV= 1 UseB2=F ITyADJ=14
 ICtDFT=  3500011 ScaDFX=  1.000000  1.000000  1.000000  1.000000
 FoFCou: FMM=F IPFlag=           0 FMFlag=      100000 FMFlg1=           0
         NFxFlg=           0 DoJE=T BraDBF=F KetDBF=T FulRan=T
         wScrn=  0.000000 ICntrl=       500 IOpCl=  0 I1Cent=   200000004 NGrid=           0
         NMat0=    1 NMatS0=      1 NMatT0=    0 NMatD0=    1 NMtDS0=    0 NMtDT0=    0
 Petite list used in FoFCou.
 Keep R1 ints in memory in canonical form, NReq=65139132.
 Requested convergence on RMS density matrix=1.00D-08 within 128 cycles.
 Requested convergence on MAX density matrix=1.00D-06.
 Requested convergence on             energy=1.00D-06.
 No special actions if energy rises.
 Inv3:  Mode=1 IEnd=     3933075.
 Iteration    1 A*A^-1 deviation from unit magnitude is 2.89D-15 for     62.
 Iteration    1 A*A^-1 deviation from orthogonality  is 2.56D-15 for    189     58.
 Iteration    1 A^-1*A deviation from unit magnitude is 3.11D-15 for    219.
 Iteration    1 A^-1*A deviation from orthogonality  is 1.88D-14 for    295    189.
 Error on total polarization charges =  0.01658
 SCF Done:  E(RB3LYP) =  -2726.85630239     A.U. after   13 cycles
            NFock= 13  Conv=0.31D-08     -V/T= 2.0065
 SMD-CDS (non-electrostatic) energy       (kcal/mol) =      -2.76
 (included in total energy above)
 D1PCM: PCM CHGder 1st derivatives, ID1Alg=3 FixD1E=F DoIter=F DoCFld=F I1PDM=0.
 Calling FoFJK, ICntrl=      2127 FMM=F ISym2X=0 I1Cent= 0 IOpClX= 0 NMat=1 NMatS=1 NMatT=0.
 ***** Axes restored to original set *****
 -------------------------------------------------------------------
 Center     Atomic                   Forces (Hartrees/Bohr)
 Number     Number              X              Y              Z
 -------------------------------------------------------------------
      1        6           0.000328720   -0.005650090   -0.002279902
      2        1          -0.000133645    0.001789522    0.004889145
      3        1           0.003434955    0.003005494   -0.001736916
      4        1          -0.003545796    0.002694501   -0.001987801
      5        6           0.001047558    0.020063302    0.019947168
      6        1           0.006952831   -0.006734921   -0.016476263
      7        1          -0.006500263   -0.008595727   -0.013591399
      8       35          -0.000902680   -0.006061509    0.011538040
      9        8          -0.002960485    0.001953563   -0.003970655
     10        1           0.002278805   -0.002464136    0.003668583
 -------------------------------------------------------------------
 Cartesian Forces:  Max     0.020063302 RMS     0.007753059

 GradGradGradGradGradGradGradGradGradGradGradGradGradGradGradGradGradGrad
 Berny optimization.
 FormGI is forming the generalized inverse of G from B-inverse, IUseBI=4.
 Internal  Forces:  Max     0.015060952 RMS     0.005729198
 Search for a saddle point.
 Step number   3 out of a maximum of   46
 All quantities printed in internal units (Hartrees-Bohrs-Radians)
 Swapping is turned off.
 Update second derivatives using D2CorX and points    2    3
 ITU=  0  0  0
     Eigenvalues ---   -0.02485   0.00290   0.00361   0.00536   0.00885
     Eigenvalues ---    0.02710   0.03530   0.04602   0.04871   0.06355
     Eigenvalues ---    0.08557   0.11163   0.12243   0.14072   0.17079
     Eigenvalues ---    0.19270   0.28146   0.30068   0.38897   0.39155
     Eigenvalues ---    0.39492   0.40221   0.41969   0.55009
 Eigenvectors required to have negative eigenvalues:
                          R7        A13       A14       D10       A9
   1                    0.81842  -0.25303  -0.20661   0.18919  -0.16911
                          D5        D1        D8        D7        D2
   1                    0.14184  -0.14141   0.14102  -0.13894   0.13854
 RFO step:  Lambda0=2.501095544D-04 Lambda=-1.70131269D-02.
 Linear search not attempted -- option 19 set.
 Maximum step size (   0.300) exceeded in Quadratic search.
    -- Step size scaled by   0.679
 Iteration  1 RMS(Cart)=  0.08252412 RMS(Int)=  0.00447010
 Iteration  2 RMS(Cart)=  0.00553292 RMS(Int)=  0.00196625
 Iteration  3 RMS(Cart)=  0.00001260 RMS(Int)=  0.00196622
 Iteration  4 RMS(Cart)=  0.00000001 RMS(Int)=  0.00196622
 Variable       Old X    -DE/DX   Delta X   Delta X   Delta X     New X
                                 (Linear)    (Quad)   (Total)
    R1        2.05409   0.00521   0.00000   0.00802   0.00802   2.06211
    R2        2.05222   0.00463   0.00000   0.00929   0.00929   2.06151
    R3        2.05259   0.00467   0.00000   0.00925   0.00925   2.06184
    R4        2.84048   0.00193   0.00000  -0.01011  -0.01011   2.83036
    R5        2.02859   0.00336   0.00000  -0.00214  -0.00214   2.02645
    R6        2.03094   0.00467   0.00000  -0.00242  -0.00242   2.02851
    R7        4.81543  -0.01055   0.00000  -0.10054  -0.10054   4.71489
    R8        3.88531  -0.00027   0.00000   0.11008   0.11008   3.99539
    R9        1.82411   0.00392   0.00000   0.00530   0.00530   1.82942
    A1        1.90966  -0.00069   0.00000  -0.00443  -0.00444   1.90521
    A2        1.91039  -0.00064   0.00000  -0.00539  -0.00540   1.90500
    A3        1.87938  -0.00111   0.00000   0.00498   0.00497   1.88435
    A4        1.89571  -0.00139   0.00000  -0.00338  -0.00339   1.89233
    A5        1.93782   0.00195   0.00000   0.00419   0.00418   1.94200
    A6        1.93072   0.00185   0.00000   0.00384   0.00383   1.93455
    A7        2.06921   0.00253   0.00000   0.04111   0.03504   2.10425
    A8        2.04335   0.00302   0.00000   0.03313   0.02673   2.07008
    A9        1.63476   0.01506   0.00000   0.07240   0.07397   1.70873
   A10        1.98716  -0.00025   0.00000   0.04176   0.03486   2.02201
   A11        1.79291  -0.01209   0.00000  -0.13162  -0.13159   1.66132
   A12        1.85955  -0.01123   0.00000  -0.12628  -0.12664   1.73292
   A13        1.88121  -0.00791   0.00000  -0.14943  -0.14943   1.73178
   A14        1.45956  -0.00654   0.00000  -0.03223  -0.03223   1.42733
    D1       -1.25657  -0.00437   0.00000  -0.10346  -0.10393  -1.36050
    D2        1.23378   0.00383   0.00000   0.09310   0.09382   1.32760
    D3       -3.11761   0.00026   0.00000  -0.00254  -0.00279  -3.12040
    D4        0.83360  -0.00477   0.00000  -0.10330  -0.10377   0.72983
    D5       -2.95923   0.00343   0.00000   0.09326   0.09398  -2.86525
    D6       -1.02744  -0.00014   0.00000  -0.00238  -0.00263  -1.03006
    D7        2.93969  -0.00398   0.00000  -0.10219  -0.10266   2.83703
    D8       -0.85314   0.00421   0.00000   0.09437   0.09509  -0.75805
    D9        1.07866   0.00064   0.00000  -0.00127  -0.00152   1.07714
   D10        1.54701  -0.00016   0.00000   0.08016   0.08229   1.62930
   D11       -0.96332  -0.00923   0.00000  -0.10726  -0.10735  -1.07068
   D12       -2.96655   0.01133   0.00000   0.10110   0.09907  -2.86748
   D13       -0.17883   0.00065   0.00000  -0.02117  -0.02117  -0.20000
         Item               Value     Threshold  Converged?
 Maximum Force            0.015061     0.000450     NO 
 RMS     Force            0.005729     0.000300     NO 
 Maximum Displacement     0.252119     0.001800     NO 
 RMS     Displacement     0.084398     0.001200     NO 
 Predicted change in Energy=-8.986588D-03
 GradGradGradGradGradGradGradGradGradGradGradGradGradGradGradGradGradGrad

                          Input orientation:                          
 ---------------------------------------------------------------------
 Center     Atomic      Atomic             Coordinates (Angstroms)
 Number     Number       Type             X           Y           Z
 ---------------------------------------------------------------------
      1          6           0       -0.030019    1.651402   -0.721816
      2          1           0       -0.020998    2.069286    0.286182
      3          1           0        0.819880    2.045812   -1.280550
      4          1           0       -0.947084    1.957097   -1.227776
      5          6           0        0.041996    0.159995   -0.604286
      6          1           0        0.974601   -0.326080   -0.394710
      7          1           0       -0.841123   -0.375784   -0.312188
      8         35           0        0.050802   -0.376113   -3.041004
      9          8           0        0.085277    0.154316    1.554744
     10          1           0        0.828678   -0.445759    1.711119
 ---------------------------------------------------------------------
                    Distance matrix (angstroms):
                    1          2          3          4          5
     1  C    0.000000
     2  H    1.091223   0.000000
     3  H    1.090904   1.778279   0.000000
     4  H    1.091080   1.778284   1.769977   0.000000
     5  C    1.497764   2.107675   2.149126   2.143967   0.000000
     6  H    2.242029   2.681904   2.536636   3.098350   1.072354
     7  H    2.221524   2.647455   3.092052   2.508358   1.073443
     8  Br   3.081556   4.129806   3.091343   3.118884   2.495012
     9  O    2.727139   2.299490   3.486588   3.472493   2.159472
    10  H    3.324849   3.012946   3.893339   4.190961   2.519307
                    6          7          8          9         10
     6  H    0.000000
     7  H    1.818278   0.000000
     8  Br   2.803352   2.870883   0.000000
     9  O    2.195917   2.150502   4.626386   0.000000
    10  H    2.114269   2.624292   4.815872   0.968085   0.000000
 Stoichiometry    C2H6BrO(1-)
 Framework group  C1[X(C2H6BrO)]
 Deg. of freedom    24
 Full point group                 C1      NOp   1
 Largest Abelian subgroup         C1      NOp   1
 Largest concise Abelian subgroup C1      NOp   1
                         Standard orientation:                         
 ---------------------------------------------------------------------
 Center     Atomic      Atomic             Coordinates (Angstroms)
 Number     Number       Type             X           Y           Z
 ---------------------------------------------------------------------
      1          6           0       -1.301898    1.331650    0.030054
      2          1           0       -2.378245    1.510705    0.043558
      3          1           0       -0.857059    1.755601    0.931417
      4          1           0       -0.866841    1.831189   -0.836918
      5          6           0       -1.080571   -0.147975   -0.040789
      6          1           0       -1.186386   -0.757717    0.834975
      7          1           0       -1.233357   -0.646161   -0.979270
      8         35           0        1.413976   -0.124089    0.001057
      9          8           0       -3.182945   -0.640303   -0.071675
     10          1           0       -3.208888   -1.330135    0.607035
 ---------------------------------------------------------------------
 Rotational constants (GHZ):          11.3542452           1.3496274           1.2280043
 Standard basis: 6-31+G(d,p) (6D, 7F)
 There are   121 symmetry adapted cartesian basis functions of A   symmetry.
 There are   121 symmetry adapted basis functions of A   symmetry.
   121 basis functions,   225 primitive gaussians,   121 cartesian basis functions
    31 alpha electrons       31 beta electrons
       nuclear repulsion energy       219.6945552111 Hartrees.
 NAtoms=   10 NActive=   10 NUniq=   10 SFac= 1.00D+00 NAtFMM=   60 NAOKFM=F Big=F
 Integral buffers will be    131072 words long.
 Raffenetti 2 integral format.
 Two-electron integral symmetry is turned on.
 ------------------------------------------------------------------------------
 Polarizable Continuum Model (PCM)
 =================================
 Model                : PCM.
 Atomic radii         : SMD-Coulomb.
 Polarization charges : Total charges.
 Charge compensation  : None.
 Solution method      : Matrix inversion.
 Cavity type          : VdW (van der Waals Surface) (Alpha=1.000).
 Cavity algorithm     : GePol (No added spheres)
                        Default sphere list used, NSphG=   10.
                        Lebedev-Laikov grids with approx.  5.0 points / Ang**2.
                        Smoothing algorithm: York/Karplus (Gamma=1.0000).
                        Polarization charges: spherical gaussians, with
                                              point-specific exponents (IZeta= 3).
                        Self-potential: point-specific (ISelfS= 7).
                        Self-field    : sphere-specific E.n sum rule (ISelfD= 2).
 1st derivatives      : Analytical E(r).r(x)/FMM algorithm (CHGder, D1EAlg=3).
                        Cavity 1st derivative terms included.
 Solvent              : TetraHydroFuran, Eps=   7.425700 Eps(inf)=   1.974025
 ------------------------------------------------------------------------------
 Spheres list:
 ISph  on   Nord     Re0    Alpha      Xe            Ye            Ze
    1   C      1    1.8500  1.000     -1.301898      1.331650      0.030054
    2   H      2    1.2000  1.000     -2.378245      1.510705      0.043558
    3   H      3    1.2000  1.000     -0.857059      1.755601      0.931417
    4   H      4    1.2000  1.000     -0.866841      1.831189     -0.836918
    5   C      5    1.8500  1.000     -1.080571     -0.147975     -0.040789
    6   H      6    1.2000  1.000     -1.186386     -0.757717      0.834975
    7   H      7    1.2000  1.000     -1.233357     -0.646161     -0.979270
    8  Br      8    3.0600  1.000      1.413976     -0.124089      0.001057
    9   O      9    2.2940  1.000     -3.182945     -0.640303     -0.071675
   10   H     10    1.2000  1.000     -3.208888     -1.330135      0.607035
 ------------------------------------------------------------------------------
 ------------------------------------------------------------------------------
 Atomic radii for non-electrostatic terms: SMD-CDS.
 ------------------------------------------------------------------------------
 Nuclear repulsion after PCM non-electrostatic terms =      219.6900797821 Hartrees.
 One-electron integrals computed using PRISM.
 NBasis=   121 RedAO= T EigKep=  2.24D-04  NBF=   121
 NBsUse=   121 1.00D-06 EigRej= -1.00D+00 NBFU=   121
 Initial guess from the checkpoint file:  "/scratch/global/Gau-44407.chk"
 B after Tr=     0.000000   -0.000000    0.000000
         Rot=    0.999952    0.002221    0.000013   -0.009572 Ang=   1.13 deg.
 ExpMin= 3.50D-02 ExpMax= 5.74D+05 ExpMxC= 5.74D+03 IAcc=3 IRadAn=         5 AccDes= 0.00D+00
 Harris functional with IExCor=  402 and IRadAn=       5 diagonalized for initial guess.
 HarFok:  IExCor=  402 AccDes= 0.00D+00 IRadAn=         5 IDoV= 1 UseB2=F ITyADJ=14
 ICtDFT=  3500011 ScaDFX=  1.000000  1.000000  1.000000  1.000000
 FoFCou: FMM=F IPFlag=           0 FMFlag=      100000 FMFlg1=           0
         NFxFlg=           0 DoJE=T BraDBF=F KetDBF=T FulRan=T
         wScrn=  0.000000 ICntrl=       500 IOpCl=  0 I1Cent=   200000004 NGrid=           0
         NMat0=    1 NMatS0=      1 NMatT0=    0 NMatD0=    1 NMtDS0=    0 NMtDT0=    0
 Petite list used in FoFCou.
 Keep R1 ints in memory in canonical form, NReq=65139132.
 Requested convergence on RMS density matrix=1.00D-08 within 128 cycles.
 Requested convergence on MAX density matrix=1.00D-06.
 Requested convergence on             energy=1.00D-06.
 No special actions if energy rises.
 Inv3:  Mode=1 IEnd=     3810387.
 Iteration    1 A*A^-1 deviation from unit magnitude is 2.89D-15 for    189.
 Iteration    1 A*A^-1 deviation from orthogonality  is 2.19D-15 for    206     20.
 Iteration    1 A^-1*A deviation from unit magnitude is 3.33D-15 for    189.
 Iteration    1 A^-1*A deviation from orthogonality  is 3.22D-15 for    219    186.
 Error on total polarization charges =  0.01699
 SCF Done:  E(RB3LYP) =  -2726.86529875     A.U. after   12 cycles
            NFock= 12  Conv=0.77D-08     -V/T= 2.0065
 SMD-CDS (non-electrostatic) energy       (kcal/mol) =      -2.81
 (included in total energy above)
 D1PCM: PCM CHGder 1st derivatives, ID1Alg=3 FixD1E=F DoIter=F DoCFld=F I1PDM=0.
 Calling FoFJK, ICntrl=      2127 FMM=F ISym2X=0 I1Cent= 0 IOpClX= 0 NMat=1 NMatS=1 NMatT=0.
 ***** Axes restored to original set *****
 -------------------------------------------------------------------
 Center     Atomic                   Forces (Hartrees/Bohr)
 Number     Number              X              Y              Z
 -------------------------------------------------------------------
      1        6           0.000648765    0.000077690   -0.004026318
      2        1          -0.000126921    0.000728346    0.001513313
      3        1           0.001191243    0.001606275   -0.000815757
      4        1          -0.001202540    0.001302315   -0.001053079
      5        6          -0.000827108    0.007763838    0.025068221
      6        1           0.004419653   -0.003166225   -0.012650300
      7        1          -0.003814304   -0.005575010   -0.012270754
      8       35          -0.000609389   -0.002734491    0.003112118
      9        8           0.000550625    0.000878616   -0.001500322
     10        1          -0.000230023   -0.000881354    0.002622879
 -------------------------------------------------------------------
 Cartesian Forces:  Max     0.025068221 RMS     0.006143089

 GradGradGradGradGradGradGradGradGradGradGradGradGradGradGradGradGradGrad
 Berny optimization.
 FormGI is forming the generalized inverse of G from B-inverse, IUseBI=4.
 Internal  Forces:  Max     0.006890136 RMS     0.003104458
 Search for a saddle point.
 Step number   4 out of a maximum of   46
 All quantities printed in internal units (Hartrees-Bohrs-Radians)
 Swapping is turned off.
 Update second derivatives using D2CorX and points    3    4
 ITU=  0  0  0  0
     Eigenvalues ---   -0.02912   0.00350   0.00400   0.00702   0.01079
     Eigenvalues ---    0.02506   0.03454   0.04605   0.04870   0.06342
     Eigenvalues ---    0.08176   0.11114   0.12232   0.14066   0.17019
     Eigenvalues ---    0.19282   0.27750   0.29965   0.38897   0.39141
     Eigenvalues ---    0.39486   0.40209   0.41937   0.55018
 Eigenvectors required to have negative eigenvalues:
                          R7        A13       A14       D10       D5
   1                    0.74001  -0.27306  -0.21693   0.21243   0.18588
                          D7        D2        D1        D8        D4
   1                   -0.18284   0.18244  -0.18239   0.18199  -0.17896
 RFO step:  Lambda0=1.026141123D-03 Lambda=-7.70009629D-03.
 Linear search not attempted -- option 19 set.
 Maximum step size (   0.300) exceeded in Quadratic search.
    -- Step size scaled by   0.629
 Iteration  1 RMS(Cart)=  0.09496908 RMS(Int)=  0.00890527
 Iteration  2 RMS(Cart)=  0.00912053 RMS(Int)=  0.00036670
 Iteration  3 RMS(Cart)=  0.00000987 RMS(Int)=  0.00036664
 Iteration  4 RMS(Cart)=  0.00000000 RMS(Int)=  0.00036664
 Variable       Old X    -DE/DX   Delta X   Delta X   Delta X     New X
                                 (Linear)    (Quad)   (Total)
    R1        2.06211   0.00168   0.00000   0.00146   0.00146   2.06358
    R2        2.06151   0.00193   0.00000   0.00491   0.00491   2.06642
    R3        2.06184   0.00186   0.00000   0.00417   0.00417   2.06601
    R4        2.83036   0.00402   0.00000   0.01189   0.01189   2.84225
    R5        2.02645   0.00330   0.00000   0.00193   0.00193   2.02839
    R6        2.02851   0.00258   0.00000  -0.00201  -0.00201   2.02650
    R7        4.71489  -0.00245   0.00000  -0.24127  -0.24127   4.47361
    R8        3.99539   0.00110   0.00000   0.06162   0.06162   4.05701
    R9        1.82942   0.00037   0.00000   0.00079   0.00079   1.83021
    A1        1.90521  -0.00051   0.00000  -0.00142  -0.00143   1.90379
    A2        1.90500  -0.00040   0.00000   0.00754   0.00753   1.91252
    A3        1.88435  -0.00026   0.00000  -0.00053  -0.00053   1.88382
    A4        1.89233  -0.00104   0.00000  -0.00467  -0.00467   1.88766
    A5        1.94200   0.00121   0.00000  -0.00285  -0.00285   1.93915
    A6        1.93455   0.00097   0.00000   0.00216   0.00216   1.93671
    A7        2.10425   0.00045   0.00000   0.00494   0.00378   2.10803
    A8        2.07008   0.00256   0.00000   0.00456   0.00341   2.07349
    A9        1.70873   0.00538   0.00000   0.06994   0.07007   1.77879
   A10        2.02201   0.00017   0.00000   0.02527   0.02414   2.04616
   A11        1.66132  -0.00610   0.00000  -0.04551  -0.04546   1.61586
   A12        1.73292  -0.00689   0.00000  -0.10768  -0.10716   1.62575
   A13        1.73178  -0.00153   0.00000   0.07844   0.07844   1.81022
   A14        1.42733  -0.00283   0.00000  -0.04424  -0.04424   1.38309
    D1       -1.36050  -0.00399   0.00000  -0.03113  -0.03110  -1.39160
    D2        1.32760   0.00388   0.00000   0.06094   0.06102   1.38862
    D3       -3.12040  -0.00023   0.00000  -0.02219  -0.02229   3.14050
    D4        0.72983  -0.00406   0.00000  -0.03490  -0.03488   0.69495
    D5       -2.86525   0.00381   0.00000   0.05716   0.05724  -2.80802
    D6       -1.03006  -0.00030   0.00000  -0.02597  -0.02606  -1.05613
    D7        2.83703  -0.00391   0.00000  -0.04128  -0.04125   2.79578
    D8       -0.75805   0.00396   0.00000   0.05079   0.05086  -0.70719
    D9        1.07714  -0.00015   0.00000  -0.03234  -0.03244   1.04470
   D10        1.62930   0.00138   0.00000  -0.03643  -0.03602   1.59328
   D11       -1.07068  -0.00688   0.00000  -0.12112  -0.12171  -1.19239
   D12       -2.86748   0.00403   0.00000   0.01895   0.01914  -2.84834
   D13       -0.20000  -0.00161   0.00000  -0.05584  -0.05584  -0.25585
         Item               Value     Threshold  Converged?
 Maximum Force            0.006890     0.000450     NO 
 RMS     Force            0.003104     0.000300     NO 
 Maximum Displacement     0.272836     0.001800     NO 
 RMS     Displacement     0.096855     0.001200     NO 
 Predicted change in Energy=-3.302549D-03
 GradGradGradGradGradGradGradGradGradGradGradGradGradGradGradGradGradGrad

                          Input orientation:                          
 ---------------------------------------------------------------------
 Center     Atomic      Atomic             Coordinates (Angstroms)
 Number     Number       Type             X           Y           Z
 ---------------------------------------------------------------------
      1          6           0       -0.049594    1.676714   -0.724495
      2          1           0       -0.091374    2.074654    0.291554
      3          1           0        0.838902    2.069993   -1.226143
      4          1           0       -0.929886    2.005572   -1.283255
      5          6           0       -0.000096    0.176286   -0.632582
      6          1           0        0.919637   -0.330378   -0.410053
      7          1           0       -0.911381   -0.360902   -0.456566
      8         35           0        0.081945   -0.450792   -2.913879
      9          8           0        0.202050    0.154457    1.595212
     10          1           0        0.901806   -0.501433    1.729925
 ---------------------------------------------------------------------
                    Distance matrix (angstroms):
                    1          2          3          4          5
     1  C    0.000000
     2  H    1.091997   0.000000
     3  H    1.093500   1.780123   0.000000
     4  H    1.093286   1.785469   1.770882   0.000000
     5  C    1.504055   2.113329   2.154614   2.152712   0.000000
     6  H    2.250933   2.701588   2.536593   3.104815   1.073376
     7  H    2.228530   2.676571   3.092732   2.506782   1.072378
     8  Br   3.055648   4.084449   3.126627   3.117124   2.367335
     9  O    2.785971   2.339397   3.469136   3.604647   2.237053
    10  H    3.416675   3.113124   3.918485   4.326595   2.618047
                    6          7          8          9         10
     6  H    0.000000
     7  H    1.831863   0.000000
     8  Br   2.642985   2.652012   0.000000
     9  O    2.184282   2.390632   4.551116   0.000000
    10  H    2.146878   2.843966   4.715894   0.968503   0.000000
 Stoichiometry    C2H6BrO(1-)
 Framework group  C1[X(C2H6BrO)]
 Deg. of freedom    24
 Full point group                 C1      NOp   1
 Largest Abelian subgroup         C1      NOp   1
 Largest concise Abelian subgroup C1      NOp   1
                         Standard orientation:                         
 ---------------------------------------------------------------------
 Center     Atomic      Atomic             Coordinates (Angstroms)
 Number     Number       Type             X           Y           Z
 ---------------------------------------------------------------------
      1          6           0       -1.280916    1.378923    0.038678
      2          1           0       -2.363677    1.513578   -0.005534
      3          1           0       -0.912638    1.756142    0.996707
      4          1           0       -0.807012    1.956292   -0.759654
      5          6           0       -0.990152   -0.088913   -0.113304
      6          1           0       -1.094543   -0.758632    0.718990
      7          1           0       -1.006569   -0.519914   -1.095120
      8         35           0        1.373580   -0.134275    0.009118
      9          8           0       -3.143008   -0.691978   -0.036281
[...]
      5        6          -0.000009757   -0.000014055   -0.000020108
      6        1           0.000005843    0.000009052    0.000005551
      7        1          -0.000001286    0.000001652    0.000008264
      8       35          -0.000002193   -0.000006697   -0.000006383
      9        8           0.000003837   -0.000020600    0.000018610
     10        1          -0.000000711    0.000012691   -0.000008317
 -------------------------------------------------------------------
 Cartesian Forces:  Max     0.000020600 RMS     0.000009045
 FormGI is forming the generalized inverse of G from B-inverse, IUseBI=4.

 GradGradGradGradGradGradGradGradGradGradGradGradGradGradGradGradGradGrad
 Berny optimization.
 Internal  Forces:  Max     0.000042024 RMS     0.000010520
 Search for a saddle point.
 Step number   1 out of a maximum of    2
 All quantities printed in internal units (Hartrees-Bohrs-Radians)
 Swapping is turned off.
 Second derivative matrix not updated -- analytic derivatives used.
 ITU=  0
     Eigenvalues ---   -0.02529   0.00167   0.00260   0.00622   0.03132
     Eigenvalues ---    0.04200   0.04615   0.04892   0.05390   0.09394
     Eigenvalues ---    0.10337   0.11516   0.11782   0.13492   0.14748
     Eigenvalues ---    0.16660   0.23525   0.32747   0.33833   0.34121
     Eigenvalues ---    0.34698   0.38846   0.41229   0.53699
 Eigenvectors required to have negative eigenvalues:
                          R7        A13       R8        D7        D5
   1                   -0.59740   0.29364   0.27506   0.23690  -0.23313
                          D1        D10       D2        D4        D8
   1                    0.22963  -0.22842  -0.22193   0.21843  -0.21466
 Angle between quadratic step and forces=  81.27 degrees.
 Linear search not attempted -- option 19 set.
 Iteration  1 RMS(Cart)=  0.00073438 RMS(Int)=  0.00000035
 Iteration  2 RMS(Cart)=  0.00000036 RMS(Int)=  0.00000000
 Variable       Old X    -DE/DX   Delta X   Delta X   Delta X     New X
                                 (Linear)    (Quad)   (Total)
    R1        2.06844  -0.00000   0.00000  -0.00000  -0.00000   2.06844
    R2        2.06764  -0.00000   0.00000  -0.00001  -0.00001   2.06763
    R3        2.06764  -0.00000   0.00000  -0.00000  -0.00000   2.06763
    R4        2.83425   0.00002   0.00000   0.00004   0.00004   2.83429
    R5        2.03299   0.00001   0.00000  -0.00000  -0.00000   2.03299
    R6        2.03298   0.00000   0.00000   0.00000   0.00000   2.03299
    R7        4.41146   0.00001   0.00000   0.00041   0.00041   4.41187
    R8        4.94768   0.00001   0.00000  -0.00138  -0.00138   4.94630
    R9        1.83162  -0.00003   0.00000  -0.00003  -0.00003   1.83159
    A1        1.90304  -0.00000   0.00000  -0.00003  -0.00003   1.90301
    A2        1.90301  -0.00000   0.00000  -0.00000  -0.00000   1.90301
    A3        1.87428  -0.00000   0.00000  -0.00003  -0.00003   1.87425
    A4        1.89238  -0.00000   0.00000   0.00003   0.00003   1.89240
    A5        1.94522   0.00000   0.00000   0.00000   0.00000   1.94523
    A6        1.94519   0.00000   0.00000   0.00004   0.00004   1.94523
    A7        2.08637  -0.00001   0.00000  -0.00006  -0.00006   2.08631
    A8        2.08632   0.00000   0.00000  -0.00001  -0.00001   2.08631
    A9        1.79779   0.00001   0.00000   0.00005   0.00005   1.79785
   A10        2.04031   0.00001   0.00000   0.00010   0.00010   2.04041
   A11        1.63066  -0.00000   0.00000  -0.00010  -0.00010   1.63057
   A12        1.63061  -0.00000   0.00000  -0.00004  -0.00004   1.63057
   A13        1.51392   0.00004   0.00000   0.00024   0.00024   1.51416
   A14        1.11103   0.00002   0.00000   0.00050   0.00050   1.11153
    D1       -1.36677  -0.00000   0.00000  -0.00126  -0.00126  -1.36803
    D2        1.36918  -0.00000   0.00000  -0.00114  -0.00114   1.36805
    D3       -3.14043  -0.00000   0.00000  -0.00115  -0.00115  -3.14158
    D4        0.71645  -0.00000   0.00000  -0.00132  -0.00132   0.71513
    D5       -2.83078  -0.00000   0.00000  -0.00120  -0.00120  -2.83198
    D6       -1.05721  -0.00000   0.00000  -0.00121  -0.00121  -1.05842
    D7        2.83325  -0.00000   0.00000  -0.00126  -0.00126   2.83200
    D8       -0.71398  -0.00000   0.00000  -0.00114  -0.00114  -0.71512
    D9        1.05959   0.00000   0.00000  -0.00115  -0.00115   1.05844
   D10        1.79202   0.00000   0.00000   0.00026   0.00026   1.79228
   D11       -0.95439   0.00001   0.00000   0.00017   0.00017  -0.95422
   D12       -2.62290   0.00001   0.00000   0.00025   0.00025  -2.62265
   D13       -0.91191  -0.00001   0.00000   0.00022   0.00022  -0.91169
         Item               Value     Threshold  Converged?
 Maximum Force            0.000042     0.000450     YES
 RMS     Force            0.000011     0.000300     YES
 Maximum Displacement     0.002167     0.001800     NO 
 RMS     Displacement     0.000734     0.001200     YES
 Predicted change in Energy=-1.896711D-08
                           ----------------------------
                           ! Non-Optimized Parameters !
                           ! (Angstroms and Degrees)  !
 --------------------------                            --------------------------
 ! Name  Definition              Value          Derivative Info.                !
 --------------------------------------------------------------------------------
 ! R1    R(1,2)                  1.0946         -DE/DX =    0.0                 !
 ! R2    R(1,3)                  1.0941         -DE/DX =    0.0                 !
 ! R3    R(1,4)                  1.0941         -DE/DX =    0.0                 !
 ! R4    R(1,5)                  1.4998         -DE/DX =    0.0                 !
 ! R5    R(5,6)                  1.0758         -DE/DX =    0.0                 !
 ! R6    R(5,7)                  1.0758         -DE/DX =    0.0                 !
 ! R7    R(5,8)                  2.3347         -DE/DX =    0.0                 !
 ! R8    R(6,10)                 2.6175         -DE/DX =    0.0                 !
 ! R9    R(9,10)                 0.9692         -DE/DX =    0.0                 !
 ! A1    A(2,1,3)              109.0344         -DE/DX =    0.0                 !
 ! A2    A(2,1,4)              109.0345         -DE/DX =    0.0                 !
 ! A3    A(2,1,5)              107.3867         -DE/DX =    0.0                 !
 ! A4    A(3,1,4)              108.4266         -DE/DX =    0.0                 !
 ! A5    A(3,1,5)              111.4532         -DE/DX =    0.0                 !
 ! A6    A(4,1,5)              111.4534         -DE/DX =    0.0                 !
 ! A7    A(1,5,6)              119.5368         -DE/DX =    0.0                 !
 ! A8    A(1,5,7)              119.5367         -DE/DX =    0.0                 !
 ! A9    A(1,5,8)              103.0089         -DE/DX =    0.0                 !
 ! A10   A(6,5,7)              116.9071         -DE/DX =    0.0                 !
 ! A11   A(6,5,8)               93.4245         -DE/DX =    0.0                 !
 ! A12   A(7,5,8)               93.4247         -DE/DX =    0.0                 !
 ! A13   A(5,6,10)              86.7553         -DE/DX =    0.0                 !
 ! A14   A(6,10,9)              63.686          -DE/DX =    0.0                 !
 ! D1    D(2,1,5,6)            -78.3821         -DE/DX =    0.0                 !
 ! D2    D(2,1,5,7)             78.3832         -DE/DX =    0.0                 !
 ! D3    D(2,1,5,8)           -179.9993         -DE/DX =    0.0                 !
 ! D4    D(3,1,5,6)             40.9742         -DE/DX =    0.0                 !
 ! D5    D(3,1,5,7)           -162.2605         -DE/DX =    0.0                 !
 ! D6    D(3,1,5,8)            -60.643          -DE/DX =    0.0                 !
 ! D7    D(4,1,5,6)            162.2614         -DE/DX =    0.0                 !
 ! D8    D(4,1,5,7)            -40.9733         -DE/DX =    0.0                 !
 ! D9    D(4,1,5,8)             60.6442         -DE/DX =    0.0                 !
 ! D10   D(1,5,6,10)           102.6899         -DE/DX =    0.0                 !
 ! D11   D(7,5,6,10)           -54.6727         -DE/DX =    0.0                 !
 ! D12   D(8,5,6,10)          -150.2666         -DE/DX =    0.0                 !
 ! D13   D(5,6,10,9)           -52.2362         -DE/DX =    0.0                 !
 --------------------------------------------------------------------------------
 GradGradGradGradGradGradGradGradGradGradGradGradGradGradGradGradGradGrad


 ----------------------------------------------------------------------

 Electric dipole moment (input orientation):
 (Debye = 10**-18 statcoulomb cm , SI units = C m)
                  (au)            (Debye)         (10**-30 SI)
   Tot        0.236896D+01      0.602130D+01      0.200849D+02
   x         -0.212084D+00     -0.539064D+00     -0.179812D+01
   y         -0.177335D+00     -0.450740D+00     -0.150351D+01
   z         -0.235277D+01     -0.598016D+01     -0.199477D+02

 Dipole polarizability, Alpha (input orientation).
 (esu units = cm**3 , SI units = C**2 m**2 J**-1)
 Alpha(0;0):
               (au)            (10**-24 esu)      (10**-40 SI)
   iso        0.101420D+03      0.150288D+02      0.167218D+02
   aniso      0.987606D+02      0.146348D+02      0.162834D+02
   xx         0.667697D+02      0.989425D+01      0.110088D+02
   yx         0.795385D+00      0.117864D+00      0.131141D+00
   yy         0.736702D+02      0.109168D+02      0.121466D+02
   zx         0.793436D+01      0.117575D+01      0.130820D+01
   zy         0.159839D+02      0.236857D+01      0.263539D+01
   zz         0.163819D+03      0.242754D+02      0.270101D+02

 ----------------------------------------------------------------------

 Dipole orientation:
     6          0.04006690         -3.26292613          1.17079561
     1         -0.01599001         -3.82441959         -0.81918831
     1          1.62665686         -4.21331999          2.09525003
     1         -1.70992644         -3.86706044          2.09148261
     6          0.33238248         -0.44484085          1.24781565
     1          2.15994516          0.38265985          0.91872024
     1         -1.28655291          0.74006504          0.91908101
    35          0.42300135          0.42608630          5.57150076
     8          0.35088828         -0.26034020         -3.09446928
     1          0.53060678          1.48469139         -3.62114316

 Electric dipole moment (dipole orientation):
 (Debye = 10**-18 statcoulomb cm , SI units = C m)
                  (au)            (Debye)         (10**-30 SI)
   Tot        0.236896D+01      0.602130D+01      0.200849D+02
   x          0.000000D+00      0.000000D+00      0.000000D+00
   y          0.000000D+00      0.000000D+00      0.000000D+00
   z          0.236896D+01      0.602130D+01      0.200849D+02

 Dipole polarizability, Alpha (dipole orientation).
 (esu units = cm**3 , SI units = C**2 m**2 J**-1)
 Alpha(0;0):
               (au)            (10**-24 esu)      (10**-40 SI)
   iso        0.101420D+03      0.150288D+02      0.167218D+02
   aniso      0.987606D+02      0.146348D+02      0.162834D+02
   xx         0.661370D+02      0.980049D+01      0.109045D+02
   yx         0.594874D+00      0.881512D-01      0.980815D-01
   yy         0.717877D+02      0.106378D+02      0.118362D+02
   zx         0.947370D+00      0.140386D+00      0.156200D+00
   zy         0.903149D+01      0.133833D+01      0.148909D+01
   zz         0.166334D+03      0.246482D+02      0.274248D+02

 ----------------------------------------------------------------------
 Unable to Open any file for archive entry.
 1\1\GINC-N7\Freq\RB3LYP\6-31+G(d,p)\C2H6Br1O1(1-)\CTRUJILLO\16-Sep-202
 1\0\\#N Geom=AllCheck Guess=TCheck SCRF=Check GenChk RB3LYP/6-31+G(d,p
 ) Freq\\cl(-)...H3C-cl (ts)\\-1,1\C,-0.0401551132,1.6753617766,-0.7464
 774412\H,0.0235769977,2.0505848323,0.2797948526\H,0.7505687463,2.13743
 12565,-1.3451480654\H,-1.0071805089,1.9607996846,-1.1713803425\C,0.115
 2749149,0.1847167698,-0.6891720567\H,1.0955538291,-0.2421619276,-0.570
 0136002\H,-0.7203016652,-0.4246428997,-0.3927667404\Br,-0.0402503652,-
 0.4462974672,-2.9313277173\O,0.3310733483,0.2593355092,1.5993977616\H,
 0.4538500362,-0.6409559344,1.9368089395\\Version=ES64L-G16RevC.01\Stat
 e=1-A\HF=-2726.8686554\RMSD=4.224e-09\RMSF=9.045e-06\ZeroPoint=0.07578
 07\Thermal=0.0824009\ETot=-2726.7862545\HTot=-2726.7853104\GTot=-2726.
 8240432\Dipole=-0.212084,-0.1773348,-2.3527747\DipoleDeriv=0.1237721,0
 .0041483,-0.0184607,0.0200541,-0.1233989,-0.0491079,-0.0021264,-0.2095
 136,-0.1112234,0.1222175,-0.0032686,-0.0092809,0.0037036,0.028943,-0.0
 581461,-0.002176,-0.1307011,-0.0313494,-0.0531453,-0.0686255,0.0989663
 ,-0.0372728,0.0104989,0.0397094,0.0948921,0.1154105,0.0194383,-0.11005
 2,0.067597,-0.0807001,0.0220026,0.0306143,0.0152372,-0.0910587,0.08263
 77,0.0562137,0.123301,0.0199361,0.2889365,0.0084627,0.5614358,0.563315
 8,0.2771625,0.6814354,3.6377039,0.0538468,0.0358535,0.0060233,0.022140
 9,-0.007566,-0.0809153,-0.0155804,-0.069618,-0.2200599,0.0598512,-0.03
 43793,-0.0435809,-0.0234197,-0.0192877,-0.0813873,-0.0249268,-0.063623
 6,-0.2144883,-0.5592711,-0.0210151,-0.1057859,-0.0293312,-0.6911765,-0
 .4446135,-0.1143259,-0.3596461,-2.0923427,-1.0935305,-0.0552701,-0.108
 3055,-0.0402575,-0.6827734,0.0022049,-0.092881,-0.1517469,-2.1959823,0
 .3330103,0.0550237,-0.0278122,0.0539173,-0.1072895,0.093703,-0.0289794
 ,0.1053656,0.1520901\Polar=66.7697419,0.7953845,73.6702214,7.9343576,1
 5.9838863,163.8187603\Quadrupole=9.8961056,10.4354008,-20.3315064,-0.7
 302315,-2.2549009,-7.0902404\PG=C01 [X(C2H6Br1O1)]\NImag=1\\0.57493251
 ,0.00666405,0.48880240,0.00069921,-0.02062777,0.56141862,-0.04829223,-
 0.00586364,-0.01405081,0.04638323,-0.00606906,-0.07400877,-0.08846042,
 0.00597199,0.08009210,-0.01425300,-0.08643592,-0.27946986,0.01598353,0
 .09581300,0.30448763,-0.19008713,-0.07964252,0.10611294,0.00228333,0.0
 0208988,-0.00145249,0.20125605,-0.07666528,-0.09068497,0.05935120,0.00
 946453,0.00483232,-0.00494705,0.08641108,0.10179464,0.10748489,0.06384
 753,-0.12661085,0.02202583,0.01255459,-0.01301373,-0.11775744,-0.06673
 196,0.13380480,-0.25795843,0.05890272,-0.09111679,-0.00012984,-0.00056
 049,-0.00011738,-0.01902640,0.00560988,-0.00954099,0.27657291,0.055127
 09,-0.06283679,0.02581731,-0.01073024,0.00256093,-0.00284198,-0.011383
 14,0.00316159,-0.00646835,-0.06480864,0.07065162,-0.09328218,0.0292886
 2,-0.08661522,-0.02644096,0.00792315,-0.00833286,0.01609396,-0.0055727
 4,0.00738679,0.10186032,-0.02896643,0.08964550,-0.08975527,0.01570820,
 0.00116030,-0.00072841,-0.00183686,0.00051988,0.00339936,-0.02719509,-
 0.00060191,-0.00253894,0.03294605,0.00090658,0.70137341,0.01642461,-0.
 22920228,0.02269404,0.00069369,-0.01232037,-0.00444833,0.00096799,-0.0
 1600889,-0.00395857,0.00099471,-0.00991057,-0.00385333,0.00627582,0.54
 270466,0.00185386,0.01576646,-0.05310652,0.00309320,-0.03009938,-0.000
 23817,-0.00212843,0.01814168,-0.00163588,-0.00139987,0.01222782,-0.001
 79829,-0.05619348,-0.10531347,0.02336258,0.00238637,-0.00210125,-0.000
 26363,-0.00001629,0.00016473,-0.00017868,0.00083918,0.00041184,0.00008
 233,0.00139903,-0.00038717,0.00025068,-0.32717602,0.11597052,-0.028004
 82,0.33082740,0.02621346,-0.00638298,0.00458071,-0.00013932,0.00000354
 ,-0.00025402,-0.00034450,0.00168812,0.00016663,0.00042268,-0.00560445,
 -0.00071282,0.11477680,-0.10226750,0.02085529,-0.12203245,0.10313189,0
 .00080956,0.00021472,0.00297424,-0.00075769,0.00080390,-0.00007950,-0.
 00046936,-0.00056077,-0.00006654,-0.00046128,0.00008445,0.00073817,-0.
 03044136,0.02244445,-0.01259573,0.03149216,-0.01650215,0.03823429,0.00
 635539,0.00469941,-0.00141249,0.00013813,0.00002253,0.00018355,0.00117
 049,0.00176268,-0.00022369,0.00094047,-0.00065693,-0.00029836,-0.25404
 964,-0.14134497,0.07313470,-0.01260150,-0.01480873,0.00734789,0.254648
 35,-0.02222407,-0.01061272,0.00924285,0.00010270,0.00000290,-0.0002395
 8,0.00079709,-0.00534598,-0.00080391,0.00021120,0.00163885,0.00007393,
 -0.14051757,-0.15451589,0.05665839,0.00991965,0.00897636,-0.00304574,0
 .14837714,0.15825365,-0.00105946,-0.00059495,0.00324414,0.00053694,0.0
 0094969,-0.00024811,0.00033582,-0.00004591,0.00070384,0.00037213,-0.00
 036901,-0.00011370,0.07518386,0.05889245,-0.03346652,-0.00358093,-0.00
 173038,0.00380624,-0.07267648,-0.05411697,0.05929687,-0.00019131,0.000
 02635,0.00027037,0.00087814,0.00022105,0.00004202,0.00024753,0.0001260
 4,-0.00065277,0.00065558,-0.00013178,0.00085200,-0.01948955,0.00037450
 ,0.00356730,0.00249111,-0.00352353,-0.00966373,0.00253951,0.00266815,0
 .00561696,0.01073624,-0.00102889,-0.00789257,-0.01828617,0.00028774,-0
 .00220510,-0.00030558,0.00086706,0.00050554,-0.00063244,-0.00094273,0.
 00029295,-0.00029344,0.00067518,-0.00790471,0.01915050,-0.00046751,0.0
 0017491,-0.00194577,0.00065474,0.00090946,-0.00052008,0.00026118,0.015
 06136,-0.00081870,-0.00758152,-0.01624912,0.00011347,-0.00092333,0.001
 02185,-0.00016146,-0.00011831,0.00108749,0.00028909,-0.00004309,0.0008
 9331,0.00387590,0.01605697,0.03642813,0.00214907,-0.00590147,-0.018925
 10,-0.00512228,-0.00723721,-0.01971127,0.00182863,0.00726561,0.0367690
 7,0.00170657,0.00110499,-0.00136801,-0.00019037,0.00014308,-0.00046246
 ,-0.00001437,0.00021766,-0.00047879,0.00011085,-0.00008595,-0.00007964
 ,-0.01061057,-0.00055582,0.00551626,0.00200303,-0.00058304,0.00143783,
 0.00130457,0.00073203,-0.00389435,0.00213514,-0.00027941,-0.00214742,0
 .01259388,0.00147874,-0.00678889,0.00623550,0.00038317,-0.00044829,0.0
 0357399,0.00023761,-0.00014531,0.00180831,0.00017257,-0.00018081,0.001
 84702,-0.00103139,-0.01061308,-0.00993029,-0.00147969,0.00025215,-0.00
 149885,0.00137193,0.00067866,-0.00232182,0.00004814,0.00121051,-0.0006
 4795,-0.06078558,0.46082701,-0.00097799,0.00236796,-0.00566924,-0.0002
 1310,0.00110558,-0.00119789,-0.00037916,0.00039100,-0.00087096,0.00009
 330,0.00046957,-0.00095451,0.00502761,-0.00505266,0.03516987,-0.002658
 19,-0.00066604,-0.01291027,-0.00006005,-0.00054128,-0.01264198,-0.0018
 1062,-0.00400079,-0.02035648,0.02383844,-0.15584927,0.08910176,0.00090
 355,0.00050170,-0.00003109,-0.00032569,-0.00014684,-0.00026498,-0.0000
 6803,-0.00014334,-0.00033744,-0.00002523,0.00011070,0.00013761,-0.0004
 2436,0.00019894,0.00056129,-0.00015231,0.00001862,0.00070597,-0.000445
 77,-0.00006634,-0.00083449,-0.00000240,-0.00002737,-0.00000631,-0.0090
 3873,0.05960450,-0.02286024,0.00957897,0.00007934,-0.00039241,-0.00054
 726,-0.00017062,0.00149075,0.00008547,-0.00000054,0.00020294,0.0002181
 6,-0.00000192,0.00022667,0.00026603,0.00019887,0.00003863,0.00254302,0
 .00000134,0.00002797,0.00000577,-0.00007780,0.00001472,-0.00014303,-0.
 00007011,-0.00015234,-0.00086970,0.06009203,-0.44479194,0.16177593,-0.
 06005057,0.44333501,-0.00045619,0.00375486,0.00008382,-0.00029040,0.00
 033321,-0.00292936,-0.00019438,0.00009286,-0.00078494,0.00002148,0.000
 08971,-0.00084917,0.00056261,0.00253845,0.00788055,0.00071202,0.000164
 25,-0.00117579,-0.00087280,0.00000953,-0.00086951,-0.00005016,-0.00043
 184,-0.00095788,-0.02236186,0.15678337,-0.06967029,0.02292968,-0.16333
 439,0.06927259\\-0.00000603,-0.00001830,0.00000100,0.00000310,0.000002
 99,0.00000151,-0.00000039,-0.00000129,-0.00000573,-0.00000096,-0.00000
 135,0.00000084,0.00000976,0.00001405,0.00002011,-0.00000584,-0.0000090
 5,-0.00000555,0.00000129,-0.00000165,-0.00000826,0.00000219,0.00000670
 ,0.00000638,-0.00000384,0.00002060,-0.00001861,0.00000071,-0.00001269,
 0.00000832\\\@
 The archive entry for this job was punched.


 We make a living by what we get,
 we make a life by what we give.
                   -- Sir Winston Churchill
 Job cpu time:       0 days  0 hours  9 minutes 53.0 seconds.
 Elapsed time:       0 days  0 hours  0 minutes 15.7 seconds.
 File lengths (MBytes):  RWF=     60 Int=      0 D2E=      0 Chk=      7 Scr=      1
 Normal termination of Gaussian 16 at Thu Sep 16 12:33:59 2021.
