 Entering Gaussian System, Link 0=g16
 Initial command:
 /ichec/packages/gaussian/16c01/l1.exe "/scratch/global/Gau-25984.inp" -scrdir="/scratch/global/"
 Entering Link 1 = /ichec/packages/gaussian/16c01/l1.exe PID=     26031.
  
 Copyright (c) 1988-2019, Gaussian, Inc.  All Rights Reserved.
  
 This is part of the Gaussian(R) 16 program.  It is based on
 the Gaussian(R) 09 system (copyright 2009, Gaussian, Inc.),
 the Gaussian(R) 03 system (copyright 2003, Gaussian, Inc.),
 the Gaussian(R) 98 system (copyright 1998, Gaussian, Inc.),
 the Gaussian(R) 94 system (copyright 1995, Gaussian, Inc.),
 the Gaussian 92(TM) system (copyright 1992, Gaussian, Inc.),
 the Gaussian 90(TM) system (copyright 1990, Gaussian, Inc.),
 the Gaussian 88(TM) system (copyright 1988, Gaussian, Inc.),
 the Gaussian 86(TM) system (copyright 1986, Carnegie Mellon
 University), and the Gaussian 82(TM) system (copyright 1983,
 Carnegie Mellon University). Gaussian is a federally registered
 trademark of Gaussian, Inc.
  
 This software contains proprietary and confidential information,
 including trade secrets, belonging to Gaussian, Inc.
  
 This software is provided under written license and may be
 used, copied, transmitted, or stored only in accord with that
 written license.
  
 The following legend is applicable only to US Government
 contracts under FAR:
  
                    RESTRICTED RIGHTS LEGEND
  
 Use, reproduction and disclosure by the US Government is
 subject to restrictions as set forth in subparagraphs (a)
 and (c) of the Commercial Computer Software - Restricted
 Rights clause in FAR 52.227-19.
  
 Gaussian, Inc.
 340 Quinnipiac St., Bldg. 40, Wallingford CT 06492
  
  
 ---------------------------------------------------------------
 Warning -- This program may not be used in any manner that
 competes with the business of Gaussian, Inc. or will provide
 assistance to any competitor of Gaussian, Inc.  The licensee
 of this program is prohibited from giving any competitor of
 Gaussian, Inc. access to this program.  By using this program,
 the user acknowledges that Gaussian, Inc. is engaged in the
 business of creating and licensing software in the field of
 computational chemistry and represents and warrants to the
 licensee that it is not a competitor of Gaussian, Inc. and that
 it will not use this program in any manner prohibited above.
 ---------------------------------------------------------------
  

 Cite this work as:
 Gaussian 16, Revision C.01,
 M. J. Frisch, G. W. Trucks, H. B. Schlegel, G. E. Scuseria, 
 M. A. Robb, J. R. Cheeseman, G. Scalmani, V. Barone, 
 G. A. Petersson, H. Nakatsuji, X. Li, M. Caricato, A. V. Marenich, 
 J. Bloino, B. G. Janesko, R. Gomperts, B. Mennucci, H. P. Hratchian, 
 J. V. Ortiz, A. F. Izmaylov, J. L. Sonnenberg, D. Williams-Young, 
 F. Ding, F. Lipparini, F. Egidi, J. Goings, B. Peng, A. Petrone, 
 T. Henderson, D. Ranasinghe, V. G. Zakrzewski, J. Gao, N. Rega, 
 G. Zheng, W. Liang, M. Hada, M. Ehara, K. Toyota, R. Fukuda, 
 J. Hasegawa, M. Ishida, T. Nakajima, Y. Honda, O. Kitao, H. Nakai, 
 T. Vreven, K. Throssell, J. A. Montgomery, Jr., J. E. Peralta, 
 F. Ogliaro, M. J. Bearpark, J. J. Heyd, E. N. Brothers, K. N. Kudin, 
 V. N. Staroverov, T. A. Keith, R. Kobayashi, J. Normand, 
 K. Raghavachari, A. P. Rendell, J. C. Burant, S. S. Iyengar, 
 J. Tomasi, M. Cossi, J. M. Millam, M. Klene, C. Adamo, R. Cammi, 
 J. W. Ochterski, R. L. Martin, K. Morokuma, O. Farkas, 
 J. B. Foresman, and D. J. Fox, Gaussian, Inc., Wallingford CT, 2019.
 
 ******************************************
 Gaussian 16:  ES64L-G16RevC.01  3-Jul-2019
                16-Sep-2021 
 ******************************************
 %mem=140GB
 %nprocshared=40
 Will use up to   40 processors via shared memory.
 ---------------------------------------------------
 # opt freq b3lyp/6-31+g(d,p) scrf=(smd,solvent=THF)
 ---------------------------------------------------
 1/18=20,19=15,26=3,38=1/1,3;
 2/9=110,12=2,17=6,18=5,40=1/2;
 3/5=1,6=6,7=111,11=2,25=1,30=1,70=32201,71=1,72=20,74=-5/1,2,3;
 4//1;
 5/5=2,38=5,53=20/2;
 6/7=2,8=2,9=2,10=2,28=1/1;
 7//1,2,3,16;
 1/18=20,19=15,26=3/3(2);
 2/9=110/2;
 99//99;
 2/9=110/2;
 3/5=1,6=6,7=111,11=2,25=1,30=1,70=32205,71=1,72=20,74=-5/1,2,3;
 4/5=5,16=3,69=1/1;
 5/5=2,38=5,53=20/2;
 7//1,2,3,16;
 1/18=20,19=15,26=3/3(-5);
 2/9=110/2;
 6/7=2,8=2,9=2,10=2,19=2,28=1/1;
 99/9=1/99;
 --------------
 br(-)...H3C-br
 --------------
 Symbolic Z-matrix:
 Charge = -1 Multiplicity = 1
 C                     0.        0.       -0.28687 
 H                     0.89721  -0.51801  -0.60276 
 H                    -0.89721  -0.51801  -0.60276 
 O                     0.        0.        1.14313 
 H                    -0.78282   0.45399   1.46358 
 C                     0.        1.47305  -0.73602 
 H                     0.08112   1.52094  -1.80186 
 H                    -0.91138   1.94035  -0.42632 
 H                     0.83026   1.98133  -0.29193 
 Br                    0.        0.       -3.35961 
 
 Add virtual bond connecting atoms Br10       and H7         Dist= 4.12D+00.

 GradGradGradGradGradGradGradGradGradGradGradGradGradGradGradGradGradGrad
 Berny optimization.
 Initialization pass.
                           ----------------------------
                           !    Initial Parameters    !
                           ! (Angstroms and Degrees)  !
 --------------------------                            --------------------------
 ! Name  Definition              Value          Derivative Info.                !
 --------------------------------------------------------------------------------
 ! R1    R(1,2)                  1.0831         estimate D2E/DX2                !
 ! R2    R(1,3)                  1.0831         estimate D2E/DX2                !
 ! R3    R(1,4)                  1.43           estimate D2E/DX2                !
 ! R4    R(1,6)                  1.54           estimate D2E/DX2                !
 ! R5    R(4,5)                  0.96           estimate D2E/DX2                !
 ! R6    R(6,7)                  1.07           estimate D2E/DX2                !
 ! R7    R(6,8)                  1.07           estimate D2E/DX2                !
 ! R8    R(6,9)                  1.07           estimate D2E/DX2                !
 ! R9    R(7,10)                 2.1786         estimate D2E/DX2                !
 ! A1    A(2,1,3)              111.8642         estimate D2E/DX2                !
 ! A2    A(2,1,4)              106.9569         estimate D2E/DX2                !
 ! A3    A(2,1,6)              111.8642         estimate D2E/DX2                !
 ! A4    A(3,1,4)              106.9569         estimate D2E/DX2                !
 ! A5    A(3,1,6)              111.8642         estimate D2E/DX2                !
 ! A6    A(4,1,6)              106.9569         estimate D2E/DX2                !
 ! A7    A(1,4,5)              109.5            estimate D2E/DX2                !
 ! A8    A(1,6,7)              109.4712         estimate D2E/DX2                !
 ! A9    A(1,6,8)              109.4712         estimate D2E/DX2                !
 ! A10   A(1,6,9)              109.4712         estimate D2E/DX2                !
 ! A11   A(7,6,8)              109.4713         estimate D2E/DX2                !
 ! A12   A(7,6,9)              109.4712         estimate D2E/DX2                !
 ! A13   A(8,6,9)              109.4712         estimate D2E/DX2                !
 ! A14   A(6,7,10)             132.7006         estimate D2E/DX2                !
 ! D1    D(2,1,4,5)            179.8889         estimate D2E/DX2                !
 ! D2    D(3,1,4,5)            -60.1111         estimate D2E/DX2                !
 ! D3    D(6,1,4,5)             59.8889         estimate D2E/DX2                !
 ! D4    D(2,1,6,7)             58.587          estimate D2E/DX2                !
 ! D5    D(2,1,6,8)            178.587          estimate D2E/DX2                !
 ! D6    D(2,1,6,9)            -61.413          estimate D2E/DX2                !
 ! D7    D(3,1,6,7)            -67.8111         estimate D2E/DX2                !
 ! D8    D(3,1,6,8)             52.1889         estimate D2E/DX2                !
 ! D9    D(3,1,6,9)            172.1889         estimate D2E/DX2                !
 ! D10   D(4,1,6,7)            175.388          estimate D2E/DX2                !
 ! D11   D(4,1,6,8)            -64.612          estimate D2E/DX2                !
 ! D12   D(4,1,6,9)             55.388          estimate D2E/DX2                !
 ! D13   D(1,6,7,10)             8.4883         estimate D2E/DX2                !
 ! D14   D(8,6,7,10)          -111.5117         estimate D2E/DX2                !
 ! D15   D(9,6,7,10)           128.4883         estimate D2E/DX2                !
 --------------------------------------------------------------------------------
 Trust Radius=3.00D-01 FncErr=1.00D-07 GrdErr=1.00D-06 EigMax=2.50D+02 EigMin=1.00D-04
 Number of steps in this run=     48 maximum allowed number of steps=    100.
 GradGradGradGradGradGradGradGradGradGradGradGradGradGradGradGradGradGrad

                          Input orientation:                          
 ---------------------------------------------------------------------
 Center     Atomic      Atomic             Coordinates (Angstroms)
 Number     Number       Type             X           Y           Z
 ---------------------------------------------------------------------
      1          6           0        0.000000    0.000000   -0.286871
      2          1           0        0.897210   -0.518005   -0.602759
      3          1           0       -0.897210   -0.518005   -0.602759
      4          8           0        0.000000    0.000000    1.143129
      5          1           0       -0.782819    0.453987    1.463584
      6          6           0        0.000000    1.473048   -0.736016
      7          1           0        0.081116    1.520940   -1.801861
      8          1           0       -0.911381    1.940353   -0.426321
      9          1           0        0.830264    1.981330   -0.291933
     10         35           0        0.000000    0.000000   -3.359607
 ---------------------------------------------------------------------
                    Distance matrix (angstroms):
                    1          2          3          4          5
     1  C    0.000000
     2  H    1.083097   0.000000
     3  H    1.083097   1.794420   0.000000
     4  O    1.430000   2.030133   2.030133   0.000000
     5  H    1.970533   2.834967   2.286400   0.960000   0.000000
     6  C    1.540000   2.187929   2.187929   2.387688   2.547455
     7  H    2.148263   2.502229   2.559739   3.315540   3.542302
     8  H    2.148263   3.057067   2.464723   2.656833   2.407811
     9  H    2.148263   2.519478   3.054089   2.583488   2.831369
    10  Br   3.072736   2.945085   2.945085   4.502736   4.907349
                    6          7          8          9         10
     6  C    0.000000
     7  H    1.070000   0.000000
     8  H    1.070000   1.747303   0.000000
     9  H    1.070000   1.747303   1.747303   0.000000
    10  Br   3.008837   2.178625   3.633146   3.745081   0.000000
 Stoichiometry    C2H6BrO(1-)
 Framework group  C1[X(C2H6BrO)]
 Deg. of freedom    24
 Full point group                 C1      NOp   1
 Largest Abelian subgroup         C1      NOp   1
 Largest concise Abelian subgroup C1      NOp   1
                         Standard orientation:                         
 ---------------------------------------------------------------------
 Center     Atomic      Atomic             Coordinates (Angstroms)
 Number     Number       Type             X           Y           Z
 ---------------------------------------------------------------------
      1          6           0        1.598671   -0.381629   -0.037110
      2          1           0        1.221433   -0.861909   -0.931606
      3          1           0        1.246489   -0.871079    0.862616
      4          8           0        3.021760   -0.520531   -0.057693
      5          1           0        3.395723   -0.103824    0.722120
      6          6           0        1.294873    1.128061   -0.025152
      7          1           0        0.237701    1.279670   -0.090739
      8          1           0        1.661217    1.558412    0.883413
      9          1           0        1.774620    1.595040   -0.859821
     10         35           0       -1.459215   -0.083161    0.007118
 ---------------------------------------------------------------------
 Rotational constants (GHZ):          14.9839247           1.3115648           1.2279954
 Standard basis: 6-31+G(d,p) (6D, 7F)
 There are   121 symmetry adapted cartesian basis functions of A   symmetry.
 There are   121 symmetry adapted basis functions of A   symmetry.
   121 basis functions,   225 primitive gaussians,   121 cartesian basis functions
    31 alpha electrons       31 beta electrons
       nuclear repulsion energy       223.0884470657 Hartrees.
 NAtoms=   10 NActive=   10 NUniq=   10 SFac= 1.00D+00 NAtFMM=   60 NAOKFM=F Big=F
 Integral buffers will be    131072 words long.
 Raffenetti 2 integral format.
 Two-electron integral symmetry is turned on.
 ------------------------------------------------------------------------------
 Polarizable Continuum Model (PCM)
 =================================
 Model                : PCM.
 Atomic radii         : SMD-Coulomb.
 Polarization charges : Total charges.
 Charge compensation  : None.
 Solution method      : On-the-fly selection.
 Cavity type          : VdW (van der Waals Surface) (Alpha=1.000).
 Cavity algorithm     : GePol (No added spheres)
                        Default sphere list used, NSphG=   10.
                        Lebedev-Laikov grids with approx.  5.0 points / Ang**2.
                        Smoothing algorithm: York/Karplus (Gamma=1.0000).
                        Polarization charges: spherical gaussians, with
                                              point-specific exponents (IZeta= 3).
                        Self-potential: point-specific (ISelfS= 7).
                        Self-field    : sphere-specific E.n sum rule (ISelfD= 2).
 1st derivatives      : Analytical E(r).r(x)/FMM algorithm (CHGder, D1EAlg=3).
                        Cavity 1st derivative terms included.
 Solvent              : TetraHydroFuran, Eps=   7.425700 Eps(inf)=   1.974025
 ------------------------------------------------------------------------------
 Spheres list:
 ISph  on   Nord     Re0    Alpha      Xe            Ye            Ze
    1   C      1    1.8500  1.000      1.598671     -0.381629     -0.037110
    2   H      2    1.2000  1.000      1.221433     -0.861909     -0.931606
    3   H      3    1.2000  1.000      1.246489     -0.871079      0.862616
    4   O      4    2.2940  1.000      3.021760     -0.520531     -0.057693
    5   H      5    1.2000  1.000      3.395723     -0.103824      0.722120
    6   C      6    1.8500  1.000      1.294873      1.128061     -0.025152
    7   H      7    1.2000  1.000      0.237701      1.279670     -0.090739
    8   H      8    1.2000  1.000      1.661217      1.558412      0.883413
    9   H      9    1.2000  1.000      1.774620      1.595040     -0.859821
   10  Br     10    3.0600  1.000     -1.459215     -0.083161      0.007118
 ------------------------------------------------------------------------------
 ------------------------------------------------------------------------------
 Atomic radii for non-electrostatic terms: SMD-CDS.
 ------------------------------------------------------------------------------
 Nuclear repulsion after PCM non-electrostatic terms =      223.0842786936 Hartrees.
 One-electron integrals computed using PRISM.
 NBasis=   121 RedAO= T EigKep=  2.72D-04  NBF=   121
 NBsUse=   121 1.00D-06 EigRej= -1.00D+00 NBFU=   121
 ExpMin= 3.50D-02 ExpMax= 5.74D+05 ExpMxC= 5.74D+03 IAcc=3 IRadAn=         5 AccDes= 0.00D+00
 Harris functional with IExCor=  402 and IRadAn=       5 diagonalized for initial guess.
 HarFok:  IExCor=  402 AccDes= 0.00D+00 IRadAn=         5 IDoV= 1 UseB2=F ITyADJ=14
 ICtDFT=  3500011 ScaDFX=  1.000000  1.000000  1.000000  1.000000
 FoFCou: FMM=F IPFlag=           0 FMFlag=      100000 FMFlg1=           0
         NFxFlg=           0 DoJE=T BraDBF=F KetDBF=T FulRan=T
         wScrn=  0.000000 ICntrl=       500 IOpCl=  0 I1Cent=   200000004 NGrid=           0
         NMat0=    1 NMatS0=      1 NMatT0=    0 NMatD0=    1 NMtDS0=    0 NMtDT0=    0
 Petite list used in FoFCou.
 Keep R1 ints in memory in canonical form, NReq=65139132.
 Requested convergence on RMS density matrix=1.00D-08 within 128 cycles.
 Requested convergence on MAX density matrix=1.00D-06.
 Requested convergence on             energy=1.00D-06.
 No special actions if energy rises.
 Inv3:  Mode=1 IEnd=     3722988.
 Iteration    1 A*A^-1 deviation from unit magnitude is 3.00D-15 for    571.
 Iteration    1 A*A^-1 deviation from orthogonality  is 2.58D-15 for    294    106.
 Iteration    1 A^-1*A deviation from unit magnitude is 3.33D-15 for    571.
 Iteration    1 A^-1*A deviation from orthogonality  is 5.88D-15 for    880    148.
 Error on total polarization charges =  0.01833
 SCF Done:  E(RB3LYP) =  -2726.92105278     A.U. after   13 cycles
            NFock= 13  Conv=0.15D-08     -V/T= 2.0064
 SMD-CDS (non-electrostatic) energy       (kcal/mol) =      -2.62
 (included in total energy above)

 **********************************************************************

            Population analysis using the SCF Density.

 **********************************************************************

 Orbital symmetries:
       Occupied  (A) (A) (A) (A) (A) (A) (A) (A) (A) (A) (A) (A)
                 (A) (A) (A) (A) (A) (A) (A) (A) (A) (A) (A) (A)
                 (A) (A) (A) (A) (A) (A) (A)
       Virtual   (A) (A) (A) (A) (A) (A) (A) (A) (A) (A) (A) (A)
                 (A) (A) (A) (A) (A) (A) (A) (A) (A) (A) (A) (A)
                 (A) (A) (A) (A) (A) (A) (A) (A) (A) (A) (A) (A)
                 (A) (A) (A) (A) (A) (A) (A) (A) (A) (A) (A) (A)
                 (A) (A) (A) (A) (A) (A) (A) (A) (A) (A) (A) (A)
                 (A) (A) (A) (A) (A) (A) (A) (A) (A) (A) (A) (A)
                 (A) (A) (A) (A) (A) (A) (A) (A) (A) (A) (A) (A)
                 (A) (A) (A) (A) (A) (A)
 The electronic state is 1-A.
 Alpha  occ. eigenvalues -- -482.76938 -61.73049 -56.24655 -56.24653 -56.24649
 Alpha  occ. eigenvalues --  -19.12111 -10.19075 -10.11995  -8.43807  -6.38286
 Alpha  occ. eigenvalues --   -6.38283  -6.38223  -2.50004  -2.50004  -2.49960
 Alpha  occ. eigenvalues --   -2.49955  -2.49941  -0.99108  -0.70667  -0.60850
 Alpha  occ. eigenvalues --   -0.59220  -0.46897  -0.42030  -0.39191  -0.34705
 Alpha  occ. eigenvalues --   -0.33979  -0.29479  -0.24253  -0.17723  -0.17628
 Alpha  occ. eigenvalues --   -0.16342
 Alpha virt. eigenvalues --    0.02563   0.04717   0.05070   0.06928   0.08148
 Alpha virt. eigenvalues --    0.08962   0.09482   0.10403   0.10529   0.12010
 Alpha virt. eigenvalues --    0.13866   0.16975   0.19636   0.22303   0.23856
 Alpha virt. eigenvalues --    0.24349   0.25924   0.27873   0.29671   0.29902
 Alpha virt. eigenvalues --    0.31404   0.33904   0.37489   0.39956   0.51091
 Alpha virt. eigenvalues --    0.56557   0.58690   0.59021   0.59401   0.62594
 Alpha virt. eigenvalues --    0.66730   0.67423   0.68876   0.72076   0.73488
 Alpha virt. eigenvalues --    0.75630   0.78210   0.80825   0.95479   0.99160
 Alpha virt. eigenvalues --    1.01324   1.03123   1.05101   1.11191   1.15609
 Alpha virt. eigenvalues --    1.20429   1.22153   1.24143   1.30677   1.39813
 Alpha virt. eigenvalues --    1.44849   1.54651   1.63652   1.64478   1.70063
 Alpha virt. eigenvalues --    1.76840   1.81515   1.90719   1.93893   2.09071
 Alpha virt. eigenvalues --    2.09918   2.12290   2.17180   2.18288   2.25423
 Alpha virt. eigenvalues --    2.31943   2.38215   2.45437   2.49475   2.57835
 Alpha virt. eigenvalues --    2.61855   2.69547   2.73791   2.82101   2.88845
 Alpha virt. eigenvalues --    2.92300   2.93232   3.00741   3.06534   3.36254
 Alpha virt. eigenvalues --    3.39925   3.42045   3.54415   3.58915   3.62138
 Alpha virt. eigenvalues --    4.27613   4.43588   4.66978   8.91471  76.42679
          Condensed to atoms (all electrons):
               1          2          3          4          5          6
     1  C    5.108632   0.435033   0.405650   0.088400   0.000214   0.216635
     2  H    0.435033   0.563248  -0.035614  -0.065885   0.007579  -0.045598
     3  H    0.405650  -0.035614   0.604323  -0.064148  -0.007836  -0.026313
     4  O    0.088400  -0.065885  -0.064148   8.443798   0.248733  -0.077836
     5  H    0.000214   0.007579  -0.007836   0.248733   0.415867  -0.013415
     6  C    0.216635  -0.045598  -0.026313  -0.077836  -0.013415   5.420106
     7  H   -0.049449  -0.001071   0.000265   0.009355   0.000132   0.399213
     8  H   -0.043991   0.004694  -0.008132  -0.010640   0.005236   0.397458
     9  H   -0.054903  -0.005944   0.004612  -0.002418  -0.001509   0.402325
    10  Br  -0.049545  -0.003654  -0.012004   0.015211   0.000413  -0.210244
               7          8          9         10
     1  C   -0.049449  -0.043991  -0.054903  -0.049545
     2  H   -0.001071   0.004694  -0.005944  -0.003654
     3  H    0.000265  -0.008132   0.004612  -0.012004
     4  O    0.009355  -0.010640  -0.002418   0.015211
     5  H    0.000132   0.005236  -0.001509   0.000413
     6  C    0.399213   0.397458   0.402325  -0.210244
     7  H    0.495567  -0.022854  -0.025386   0.018461
     8  H   -0.022854   0.584321  -0.035718   0.009620
     9  H   -0.025386  -0.035718   0.575724   0.011662
    10  Br   0.018461   0.009620   0.011662  36.174822
 Mulliken charges:
               1
     1  C   -0.056676
     2  H    0.147212
     3  H    0.139195
     4  O   -0.584570
     5  H    0.344586
     6  C   -0.462331
     7  H    0.175766
     8  H    0.120006
     9  H    0.131554
    10  Br  -0.954742
 Sum of Mulliken charges =  -1.00000
 Mulliken charges with hydrogens summed into heavy atoms:
               1
     1  C    0.229731
     4  O   -0.239984
     6  C   -0.035005
    10  Br  -0.954742
 Electronic spatial extent (au):  <R**2>=            887.1819
 Charge=             -1.0000 electrons
 Dipole moment (field-independent basis, Debye):
    X=              5.1002    Y=              1.2984    Z=              1.3882  Tot=              5.4429
 Quadrupole moment (field-independent basis, Debye-Ang):
   XX=            -64.6041   YY=            -46.6274   ZZ=            -43.3461
   XY=              2.5628   XZ=              5.5594   YZ=              0.0047
 Traceless Quadrupole moment (field-independent basis, Debye-Ang):
   XX=            -13.0783   YY=              4.8984   ZZ=              8.1798
   XY=              2.5628   XZ=              5.5594   YZ=              0.0047
 Octapole moment (field-independent basis, Debye-Ang**2):
  XXX=            -18.2001  YYY=             -3.3313  ZZZ=              1.4876  XYY=             -9.2920
  XXY=             13.8645  XXZ=             19.8375  XZZ=              0.4617  YZZ=             -1.4452
  YYZ=             -0.0005  XYZ=             -0.2589
 Hexadecapole moment (field-independent basis, Debye-Ang**3):
 XXXX=          -1026.8313 YYYY=           -174.4357 ZZZZ=            -86.3886 XXXY=             39.5399
 XXXZ=             72.0716 YYYX=             -3.1492 YYYZ=              0.2272 ZZZX=              5.8135
 ZZZY=              0.2078 XXYY=           -201.9738 XXZZ=           -159.7441 YYZZ=            -41.8684
 XXYZ=             -1.4660 YYXZ=              0.5085 ZZXY=             -1.4639
 N-N= 2.230842786936D+02 E-N=-6.955740191841D+03  KE= 2.709689538402D+03
 D1PCM: PCM CHGder 1st derivatives, ID1Alg=3 FixD1E=F DoIter=F DoCFld=F I1PDM=0.
 Calling FoFJK, ICntrl=      2127 FMM=F ISym2X=0 I1Cent= 0 IOpClX= 0 NMat=1 NMatS=1 NMatT=0.
 ***** Axes restored to original set *****
 -------------------------------------------------------------------
 Center     Atomic                   Forces (Hartrees/Bohr)
 Number     Number              X              Y              Z
 -------------------------------------------------------------------
      1        6          -0.007239059    0.029493760    0.010674521
      2        1           0.001622757   -0.003961111   -0.001704296
      3        1          -0.001449789   -0.004993570   -0.010885348
      4        8           0.012599275   -0.014522076    0.020705721
      5        1          -0.005538771    0.003654458   -0.000317038
      6        6           0.003049555   -0.019443298    0.003467151
      7        1          -0.000351611    0.006859463   -0.007199988
      8        1          -0.016355295    0.009826223    0.006792931
      9        1           0.013920012    0.009046580    0.010532743
     10       35          -0.000257074   -0.015960428   -0.032066396
 -------------------------------------------------------------------
 Cartesian Forces:  Max     0.032066396 RMS     0.012414581

 GradGradGradGradGradGradGradGradGradGradGradGradGradGradGradGradGradGrad
 Berny optimization.
 FormGI is forming the generalized inverse of G from B-inverse, IUseBI=4.
 Internal  Forces:  Max     0.045292609 RMS     0.013741586
 Search for a local minimum.
 Step number   1 out of a maximum of   48
 All quantities printed in internal units (Hartrees-Bohrs-Radians)
 Mixed Optimization -- RFO/linear search
 Second derivative matrix not updated -- first step.
 ITU=  0
     Eigenvalues ---    0.00237   0.00499   0.01295   0.04395   0.05026
     Eigenvalues ---    0.05345   0.05447   0.05489   0.10897   0.11359
     Eigenvalues ---    0.13507   0.13605   0.16000   0.16000   0.22084
     Eigenvalues ---    0.25000   0.28519   0.35623   0.35623   0.37230
     Eigenvalues ---    0.37230   0.37230   0.40989   0.55473
 RFO step:  Lambda=-3.53466456D-02 EMin= 2.36824210D-03
 Linear search not attempted -- first point.
 Maximum step size (   0.300) exceeded in Quadratic search.
    -- Step size scaled by   0.597
 Iteration  1 RMS(Cart)=  0.09504918 RMS(Int)=  0.00810519
 Iteration  2 RMS(Cart)=  0.01081734 RMS(Int)=  0.00026653
 Iteration  3 RMS(Cart)=  0.00008030 RMS(Int)=  0.00026549
 Iteration  4 RMS(Cart)=  0.00000000 RMS(Int)=  0.00026549
 Variable       Old X    -DE/DX   Delta X   Delta X   Delta X     New X
                                 (Linear)    (Quad)   (Total)
    R1        2.04676   0.00374   0.00000   0.00569   0.00569   2.05245
    R2        2.04676   0.00676   0.00000   0.01030   0.01030   2.05706
    R3        2.70231   0.02039   0.00000   0.02733   0.02733   2.72964
    R4        2.91018  -0.00388   0.00000  -0.00722  -0.00722   2.90296
    R5        1.81414   0.00614   0.00000   0.00621   0.00621   1.82035
    R6        2.02201   0.03866   0.00000   0.05658   0.05658   2.07859
    R7        2.02201   0.02019   0.00000   0.02955   0.02955   2.05155
    R8        2.02201   0.01947   0.00000   0.02849   0.02849   2.05050
    R9        4.11701   0.03409   0.00000   0.25649   0.25649   4.37350
    A1        1.95240  -0.00104   0.00000  -0.02306  -0.02345   1.92895
    A2        1.86675  -0.00873   0.00000  -0.02104  -0.02084   1.84591
    A3        1.95240  -0.00294   0.00000  -0.01208  -0.01222   1.94018
    A4        1.86675  -0.00063   0.00000   0.02132   0.02105   1.88780
    A5        1.95240  -0.00609   0.00000  -0.01469  -0.01566   1.93674
    A6        1.86675   0.02051   0.00000   0.05497   0.05473   1.92148
    A7        1.91114  -0.00455   0.00000  -0.01390  -0.01390   1.89723
    A8        1.91063   0.01720   0.00000   0.05925   0.05916   1.96980
    A9        1.91063  -0.00302   0.00000  -0.00932  -0.00954   1.90110
   A10        1.91063  -0.00573   0.00000  -0.01851  -0.01873   1.89191
   A11        1.91063  -0.00555   0.00000  -0.01364  -0.01382   1.89681
   A12        1.91063  -0.00354   0.00000  -0.00629  -0.00627   1.90436
   A13        1.91063   0.00065   0.00000  -0.01149  -0.01184   1.89880
   A14        2.31606   0.04529   0.00000   0.09470   0.09470   2.41076
    D1        3.13965   0.00276   0.00000   0.00744   0.00746  -3.13607
    D2       -1.04914  -0.00340   0.00000  -0.01942  -0.02010  -1.06924
    D3        1.04526  -0.00003   0.00000   0.00367   0.00433   1.04958
    D4        1.02254  -0.00259   0.00000  -0.01535  -0.01526   1.00728
    D5        3.11693  -0.00071   0.00000  -0.00148  -0.00135   3.11558
    D6       -1.07186  -0.00527   0.00000  -0.03260  -0.03232  -1.10418
    D7       -1.18353   0.00598   0.00000   0.03678   0.03656  -1.14696
    D8        0.91087   0.00786   0.00000   0.05065   0.05047   0.96133
    D9        3.00526   0.00329   0.00000   0.01953   0.01950   3.02476
   D10        3.06110  -0.00234   0.00000  -0.01414  -0.01423   3.04686
   D11       -1.12769  -0.00046   0.00000  -0.00027  -0.00033  -1.12802
   D12        0.96670  -0.00502   0.00000  -0.03139  -0.03130   0.93541
   D13        0.14815   0.00121   0.00000   0.00982   0.00970   0.15785
   D14       -1.94625  -0.00223   0.00000  -0.00669  -0.00665  -1.95289
   D15        2.24254   0.00255   0.00000   0.01959   0.01966   2.26220
         Item               Value     Threshold  Converged?
 Maximum Force            0.045293     0.000450     NO 
 RMS     Force            0.013742     0.000300     NO 
 Maximum Displacement     0.548429     0.001800     NO 
 RMS     Displacement     0.105250     0.001200     NO 
 Predicted change in Energy=-1.652210D-02
 GradGradGradGradGradGradGradGradGradGradGradGradGradGradGradGradGradGrad

                          Input orientation:                          
 ---------------------------------------------------------------------
 Center     Atomic      Atomic             Coordinates (Angstroms)
 Number     Number       Type             X           Y           Z
 ---------------------------------------------------------------------
      1          6           0       -0.008306    0.003973   -0.220002
      2          1           0        0.888170   -0.527657   -0.525508
      3          1           0       -0.898664   -0.527404   -0.551419
      4          8           0        0.006537    0.000638    1.224380
      5          1           0       -0.778028    0.460239    1.542416
      6          6           0       -0.002742    1.447831   -0.744495
      7          1           0        0.082290    1.504312   -1.839690
      8          1           0       -0.923913    1.936012   -0.441632
      9          1           0        0.834599    1.972025   -0.295642
     10         35           0        0.017237    0.063678   -3.649823
 ---------------------------------------------------------------------
                    Distance matrix (angstroms):
                    1          2          3          4          5
     1  C    0.000000
     2  H    1.086109   0.000000
     3  H    1.088548   1.787022   0.000000
     4  O    1.444462   2.029404   2.061959   0.000000
     5  H    1.976554   2.833454   2.318218   0.963286   0.000000
     6  C    1.536180   2.178125   2.177500   2.443546   2.608901
     7  H    2.209664   2.550571   2.598035   3.413985   3.642647
     8  H    2.149472   3.059468   2.465990   2.717904   2.477021
     9  H    2.142298   2.510801   3.052339   2.623456   2.874808
    10  Br   3.430436   3.296899   3.284565   4.874622   5.267737
                    6          7          8          9         10
     6  C    0.000000
     7  H    1.099942   0.000000
     8  H    1.085635   1.775775   0.000000
     9  H    1.085076   1.780115   1.764929   0.000000
    10  Br   3.218262   2.314356   3.831957   3.944668   0.000000
 Stoichiometry    C2H6BrO(1-)
 Framework group  C1[X(C2H6BrO)]
 Deg. of freedom    24
 Full point group                 C1      NOp   1
 Largest Abelian subgroup         C1      NOp   1
 Largest concise Abelian subgroup C1      NOp   1
                         Standard orientation:                         
 ---------------------------------------------------------------------
 Center     Atomic      Atomic             Coordinates (Angstroms)
 Number     Number       Type             X           Y           Z
 ---------------------------------------------------------------------
      1          6           0        1.820187   -0.384711   -0.023886
      2          1           0        1.463034   -0.895789   -0.913197
      3          1           0        1.466543   -0.888715    0.873808
      4          8           0        3.260248   -0.490699   -0.062077
      5          1           0        3.622947   -0.052671    0.715420
      6          6           0        1.399500    1.092740   -0.026662
      7          1           0        0.309830    1.226653   -0.094189
      8          1           0        1.751337    1.560736    0.887556
      9          1           0        1.870629    1.581385   -0.873216
     10         35           0       -1.596698   -0.081548    0.005821
 ---------------------------------------------------------------------
 Rotational constants (GHZ):          15.6761012           1.1042555           1.0476670
 Standard basis: 6-31+G(d,p) (6D, 7F)
 There are   121 symmetry adapted cartesian basis functions of A   symmetry.
 There are   121 symmetry adapted basis functions of A   symmetry.
   121 basis functions,   225 primitive gaussians,   121 cartesian basis functions
    31 alpha electrons       31 beta electrons
       nuclear repulsion energy       210.9956195358 Hartrees.
 NAtoms=   10 NActive=   10 NUniq=   10 SFac= 1.00D+00 NAtFMM=   60 NAOKFM=F Big=F
 Integral buffers will be    131072 words long.
 Raffenetti 2 integral format.
 Two-electron integral symmetry is turned on.
 ------------------------------------------------------------------------------
 Polarizable Continuum Model (PCM)
 =================================
 Model                : PCM.
 Atomic radii         : SMD-Coulomb.
 Polarization charges : Total charges.
 Charge compensation  : None.
 Solution method      : On-the-fly selection.
 Cavity type          : VdW (van der Waals Surface) (Alpha=1.000).
 Cavity algorithm     : GePol (No added spheres)
                        Default sphere list used, NSphG=   10.
                        Lebedev-Laikov grids with approx.  5.0 points / Ang**2.
                        Smoothing algorithm: York/Karplus (Gamma=1.0000).
                        Polarization charges: spherical gaussians, with
                                              point-specific exponents (IZeta= 3).
                        Self-potential: point-specific (ISelfS= 7).
                        Self-field    : sphere-specific E.n sum rule (ISelfD= 2).
 1st derivatives      : Analytical E(r).r(x)/FMM algorithm (CHGder, D1EAlg=3).
                        Cavity 1st derivative terms included.
 Solvent              : TetraHydroFuran, Eps=   7.425700 Eps(inf)=   1.974025
 ------------------------------------------------------------------------------
 Spheres list:
 ISph  on   Nord     Re0    Alpha      Xe            Ye            Ze
    1   C      1    1.8500  1.000      1.820187     -0.384711     -0.023886
    2   H      2    1.2000  1.000      1.463034     -0.895789     -0.913197
    3   H      3    1.2000  1.000      1.466543     -0.888715      0.873808
    4   O      4    2.2940  1.000      3.260248     -0.490699     -0.062077
    5   H      5    1.2000  1.000      3.622947     -0.052671      0.715420
    6   C      6    1.8500  1.000      1.399500      1.092740     -0.026662
    7   H      7    1.2000  1.000      0.309830      1.226653     -0.094189
    8   H      8    1.2000  1.000      1.751337      1.560736      0.887556
    9   H      9    1.2000  1.000      1.870629      1.581385     -0.873216
   10  Br     10    3.0600  1.000     -1.596698     -0.081548      0.005821
 ------------------------------------------------------------------------------
 ------------------------------------------------------------------------------
 Atomic radii for non-electrostatic terms: SMD-CDS.
 ------------------------------------------------------------------------------
 Nuclear repulsion after PCM non-electrostatic terms =      210.9912234477 Hartrees.
 One-electron integrals computed using PRISM.
 NBasis=   121 RedAO= T EigKep=  2.77D-04  NBF=   121
 NBsUse=   121 1.00D-06 EigRej= -1.00D+00 NBFU=   121
 Initial guess from the checkpoint file:  "/scratch/global/Gau-26031.chk"
 B after Tr=     0.000000   -0.000000    0.000000
         Rot=    0.999994    0.002849    0.000376   -0.001834 Ang=   0.39 deg.
 ExpMin= 3.50D-02 ExpMax= 5.74D+05 ExpMxC= 5.74D+03 IAcc=3 IRadAn=         5 AccDes= 0.00D+00
 Harris functional with IExCor=  402 and IRadAn=       5 diagonalized for initial guess.
 HarFok:  IExCor=  402 AccDes= 0.00D+00 IRadAn=         5 IDoV= 1 UseB2=F ITyADJ=14
 ICtDFT=  3500011 ScaDFX=  1.000000  1.000000  1.000000  1.000000
 FoFCou: FMM=F IPFlag=           0 FMFlag=      100000 FMFlg1=           0
         NFxFlg=           0 DoJE=T BraDBF=F KetDBF=T FulRan=T
         wScrn=  0.000000 ICntrl=       500 IOpCl=  0 I1Cent=   200000004 NGrid=           0
         NMat0=    1 NMatS0=      1 NMatT0=    0 NMatD0=    1 NMtDS0=    0 NMtDT0=    0
 Petite list used in FoFCou.
 Keep R1 ints in memory in canonical form, NReq=65139132.
 Requested convergence on RMS density matrix=1.00D-08 within 128 cycles.
 Requested convergence on MAX density matrix=1.00D-06.
 Requested convergence on             energy=1.00D-06.
 No special actions if energy rises.
 Inv3:  Mode=1 IEnd=     3960603.
 Iteration    1 A*A^-1 deviation from unit magnitude is 2.66D-15 for    229.
 Iteration    1 A*A^-1 deviation from orthogonality  is 1.51D-15 for    263    128.
 Iteration    1 A^-1*A deviation from unit magnitude is 2.66D-15 for    925.
 Iteration    1 A^-1*A deviation from orthogonality  is 7.37D-15 for    215    158.
 Error on total polarization charges =  0.01864
 SCF Done:  E(RB3LYP) =  -2726.93502446     A.U. after   12 cycles
            NFock= 12  Conv=0.24D-08     -V/T= 2.0064
 SMD-CDS (non-electrostatic) energy       (kcal/mol) =      -2.76
 (included in total energy above)
 D1PCM: PCM CHGder 1st derivatives, ID1Alg=3 FixD1E=F DoIter=F DoCFld=F I1PDM=0.
 Calling FoFJK, ICntrl=      2127 FMM=F ISym2X=0 I1Cent= 0 IOpClX= 0 NMat=1 NMatS=1 NMatT=0.
 ***** Axes restored to original set *****
 -------------------------------------------------------------------
 Center     Atomic                   Forces (Hartrees/Bohr)
 Number     Number              X              Y              Z
 -------------------------------------------------------------------
      1        6          -0.003760594    0.018248927    0.003147943
      2        1           0.001350354   -0.003399742   -0.001692057
      3        1          -0.000797648   -0.004106205   -0.006178665
      4        8           0.006860998   -0.006530077    0.004233127
      5        1          -0.003503792    0.002435013   -0.000267206
      6        6           0.002512828   -0.007087663    0.001073348
      7        1          -0.001353710   -0.002861734    0.009373342
      8        1          -0.007002141    0.005989318    0.002866954
      9        1           0.005805330    0.005738387    0.004309451
     10       35          -0.000111625   -0.008426224   -0.016866236
 -------------------------------------------------------------------
 Cartesian Forces:  Max     0.018248927 RMS     0.006440225

 GradGradGradGradGradGradGradGradGradGradGradGradGradGradGradGradGradGrad
 Berny optimization.
 Using GEDIIS/GDIIS optimizer.
 FormGI is forming the generalized inverse of G from B-inverse, IUseBI=4.
 Internal  Forces:  Max     0.018433959 RMS     0.005456681
 Search for a local minimum.
 Step number   2 out of a maximum of   48
 All quantities printed in internal units (Hartrees-Bohrs-Radians)
 Mixed Optimization -- RFO/linear search
 Update second derivatives using D2CorX and points    1    2
 DE= -1.40D-02 DEPred=-1.65D-02 R= 8.46D-01
 TightC=F SS=  1.41D+00  RLast= 3.13D-01 DXNew= 5.0454D-01 9.3757D-01
 Trust test= 8.46D-01 RLast= 3.13D-01 DXMaxT set to 5.05D-01
 ITU=  1  0
 Use linear search instead of GDIIS.
 Linear search step of   0.600 exceeds DXMaxT=   0.505 but not scaled.
 Quartic linear search produced a step of  2.00000.
 Iteration  1 RMS(Cart)=  0.17114493 RMS(Int)=  0.04448144
 Iteration  2 RMS(Cart)=  0.03988519 RMS(Int)=  0.01153500
 Iteration  3 RMS(Cart)=  0.01068777 RMS(Int)=  0.00160735
 Iteration  4 RMS(Cart)=  0.00002192 RMS(Int)=  0.00160733
 Iteration  5 RMS(Cart)=  0.00000000 RMS(Int)=  0.00160733
 Variable       Old X    -DE/DX   Delta X   Delta X   Delta X     New X
                                 (Linear)    (Quad)   (Total)
    R1        2.05245   0.00326   0.01138   0.00000   0.01138   2.06383
    R2        2.05706   0.00454   0.02060   0.00000   0.02060   2.07766
    R3        2.72964   0.00400   0.05466   0.00000   0.05466   2.78429
    R4        2.90296  -0.00650  -0.01444   0.00000  -0.01444   2.88852
    R5        1.82035   0.00394   0.01242   0.00000   0.01242   1.83277
    R6        2.07859   0.00677   0.11316   0.00000   0.11316   2.19175
    R7        2.05155   0.00944   0.05909   0.00000   0.05909   2.11065
    R8        2.05050   0.00903   0.05698   0.00000   0.05698   2.10747
    R9        4.37350   0.01843   0.51299   0.00000   0.51299   4.88648
    A1        1.92895  -0.00171  -0.04691   0.00000  -0.04935   1.87960
    A2        1.84591  -0.00310  -0.04168   0.00000  -0.04028   1.80563
    A3        1.94018  -0.00060  -0.02445   0.00000  -0.02506   1.91512
    A4        1.88780   0.00049   0.04209   0.00000   0.04015   1.92795
    A5        1.93674  -0.00220  -0.03133   0.00000  -0.03711   1.89963
    A6        1.92148   0.00725   0.10946   0.00000   0.10775   2.02924
    A7        1.89723  -0.00304  -0.02781   0.00000  -0.02781   1.86942
    A8        1.96980  -0.00571   0.11833   0.00000   0.11769   2.08749
    A9        1.90110   0.00273  -0.01907   0.00000  -0.02036   1.88073
   A10        1.89191   0.00208  -0.03745   0.00000  -0.03871   1.85320
   A11        1.89681   0.00096  -0.02764   0.00000  -0.02868   1.86813
   A12        1.90436   0.00200  -0.01255   0.00000  -0.01256   1.89180
   A13        1.89880  -0.00202  -0.02367   0.00000  -0.02573   1.87306
   A14        2.41076   0.01723   0.18940   0.00000   0.18940   2.60016
    D1       -3.13607   0.00141   0.01492   0.00000   0.01521  -3.12086
    D2       -1.06924  -0.00198  -0.04020   0.00000  -0.04427  -1.11351
    D3        1.04958   0.00003   0.00865   0.00000   0.01243   1.06201
    D4        1.00728  -0.00102  -0.03052   0.00000  -0.02984   0.97744
    D5        3.11558  -0.00162  -0.00271   0.00000  -0.00190   3.11367
    D6       -1.10418  -0.00132  -0.06464   0.00000  -0.06286  -1.16704
    D7       -1.14696   0.00319   0.07313   0.00000   0.07166  -1.07530
    D8        0.96133   0.00260   0.10093   0.00000   0.09959   1.06093
    D9        3.02476   0.00290   0.03900   0.00000   0.03864   3.06340
   D10        3.04686  -0.00071  -0.02847   0.00000  -0.02891   3.01795
   D11       -1.12802  -0.00131  -0.00066   0.00000  -0.00098  -1.12900
   D12        0.93541  -0.00101  -0.06259   0.00000  -0.06193   0.87347
   D13        0.15785   0.00017   0.01939   0.00000   0.01866   0.17650
   D14       -1.95289  -0.00026  -0.01329   0.00000  -0.01302  -1.96591
   D15        2.26220   0.00047   0.03932   0.00000   0.03979   2.30199
         Item               Value     Threshold  Converged?
 Maximum Force            0.018434     0.000450     NO 
 RMS     Force            0.005457     0.000300     NO 
 Maximum Displacement     1.067105     0.001800     NO 
 RMS     Displacement     0.213546     0.001200     NO 
 Predicted change in Energy=-9.405080D-03
 GradGradGradGradGradGradGradGradGradGradGradGradGradGradGradGradGradGrad

                          Input orientation:                          
 ---------------------------------------------------------------------
 Center     Atomic      Atomic             Coordinates (Angstroms)
 Number     Number       Type             X           Y           Z
 ---------------------------------------------------------------------
      1          6           0       -0.025789    0.010397   -0.084758
      2          1           0        0.867304   -0.551746   -0.366067
      3          1           0       -0.900735   -0.552836   -0.439761
      4          8           0        0.021374    0.014450    1.387866
      5          1           0       -0.765969    0.488783    1.697265
      6          6           0       -0.010003    1.378725   -0.765833
      7          1           0        0.079348    1.443056   -1.920421
      8          1           0       -0.948641    1.912349   -0.480033
      9          1           0        0.841565    1.940382   -0.315161
     10         35           0        0.058728    0.250087   -4.214511
 ---------------------------------------------------------------------
                    Distance matrix (angstroms):
                    1          2          3          4          5
     1  C    0.000000
     2  H    1.092132   0.000000
     3  H    1.099450   1.769574   0.000000
     4  O    1.473385   2.027919   2.124222   0.000000
     5  H    1.988045   2.829773   2.381178   0.969859   0.000000
     6  C    1.528539   2.157822   2.151895   2.549637   2.725863
     7  H    2.330928   2.648797   2.671423   3.604031   3.835733
     8  H    2.150656   3.063072   2.465979   2.834078   2.607784
     9  H    2.128434   2.492781   3.044219   2.698560   2.956546
    10  Br   4.137566   4.013384   3.976681   5.607454   5.973792
                    6          7          8          9         10
     6  C    0.000000
     7  H    1.159826   0.000000
     8  H    1.116906   1.830769   0.000000
     9  H    1.115227   1.845310   1.798001   0.000000
    10  Br   3.629315   2.585816   4.210016   4.321442   0.000000
 Stoichiometry    C2H6BrO(1-)
 Framework group  C1[X(C2H6BrO)]
 Deg. of freedom    24
 Full point group                 C1      NOp   1
 Largest Abelian subgroup         C1      NOp   1
 Largest concise Abelian subgroup C1      NOp   1
                         Standard orientation:                         
 ---------------------------------------------------------------------
 Center     Atomic      Atomic             Coordinates (Angstroms)
 Number     Number       Type             X           Y           Z
 ---------------------------------------------------------------------
      1          6           0        2.258745   -0.389194    0.004714
      2          1           0        1.947730   -0.967081   -0.868252
      3          1           0        1.912986   -0.924780    0.900475
      4          8           0        3.729806   -0.413624   -0.074308
      5          1           0        4.064984    0.073457    0.694480
      6          6           0        1.602306    0.990789   -0.029431
      7          1           0        0.447379    1.074418   -0.095368
      8          1           0        1.918297    1.541170    0.889650
      9          1           0        2.044181    1.523579   -0.903852
     10         35           0       -1.866866   -0.074895    0.003589
 ---------------------------------------------------------------------
 Rotational constants (GHZ):          17.9348142           0.8164562           0.7901299
 Standard basis: 6-31+G(d,p) (6D, 7F)
 There are   121 symmetry adapted cartesian basis functions of A   symmetry.
 There are   121 symmetry adapted basis functions of A   symmetry.
   121 basis functions,   225 primitive gaussians,   121 cartesian basis functions
    31 alpha electrons       31 beta electrons
       nuclear repulsion energy       192.0003329323 Hartrees.
 NAtoms=   10 NActive=   10 NUniq=   10 SFac= 1.00D+00 NAtFMM=   60 NAOKFM=F Big=F
 Integral buffers will be    131072 words long.
 Raffenetti 2 integral format.
 Two-electron integral symmetry is turned on.
 ------------------------------------------------------------------------------
 Polarizable Continuum Model (PCM)
 =================================
 Model                : PCM.
 Atomic radii         : SMD-Coulomb.
 Polarization charges : Total charges.
 Charge compensation  : None.
 Solution method      : On-the-fly selection.
 Cavity type          : VdW (van der Waals Surface) (Alpha=1.000).
 Cavity algorithm     : GePol (No added spheres)
                        Default sphere list used, NSphG=   10.
                        Lebedev-Laikov grids with approx.  5.0 points / Ang**2.
                        Smoothing algorithm: York/Karplus (Gamma=1.0000).
                        Polarization charges: spherical gaussians, with
                                              point-specific exponents (IZeta= 3).
                        Self-potential: point-specific (ISelfS= 7).
                        Self-field    : sphere-specific E.n sum rule (ISelfD= 2).
 1st derivatives      : Analytical E(r).r(x)/FMM algorithm (CHGder, D1EAlg=3).
                        Cavity 1st derivative terms included.
 Solvent              : TetraHydroFuran, Eps=   7.425700 Eps(inf)=   1.974025
 ------------------------------------------------------------------------------
 Spheres list:
 ISph  on   Nord     Re0    Alpha      Xe            Ye            Ze
    1   C      1    1.8500  1.000      2.258745     -0.389194      0.004714
    2   H      2    1.2000  1.000      1.947730     -0.967081     -0.868252
    3   H      3    1.2000  1.000      1.912986     -0.924780      0.900475
    4   O      4    2.2940  1.000      3.729806     -0.413624     -0.074308
    5   H      5    1.2000  1.000      4.064984      0.073457      0.694480
    6   C      6    1.8500  1.000      1.602306      0.990789     -0.029431
    7   H      7    1.2000  1.000      0.447379      1.074418     -0.095368
    8   H      8    1.2000  1.000      1.918297      1.541170      0.889650
    9   H      9    1.2000  1.000      2.044181      1.523579     -0.903852
   10  Br     10    3.0600  1.000     -1.866866     -0.074895      0.003589
 ------------------------------------------------------------------------------
 ------------------------------------------------------------------------------
 Atomic radii for non-electrostatic terms: SMD-CDS.
 ------------------------------------------------------------------------------
 Nuclear repulsion after PCM non-electrostatic terms =      191.9956495454 Hartrees.
 One-electron integrals computed using PRISM.
 NBasis=   121 RedAO= T EigKep=  2.78D-04  NBF=   121
 NBsUse=   121 1.00D-06 EigRej= -1.00D+00 NBFU=   121
 Initial guess from the checkpoint file:  "/scratch/global/Gau-26031.chk"
 B after Tr=     0.000000   -0.000000   -0.000000
         Rot=    0.999971    0.007003    0.000379   -0.003075 Ang=   0.88 deg.
 ExpMin= 3.50D-02 ExpMax= 5.74D+05 ExpMxC= 5.74D+03 IAcc=3 IRadAn=         5 AccDes= 0.00D+00
 Harris functional with IExCor=  402 and IRadAn=       5 diagonalized for initial guess.
 HarFok:  IExCor=  402 AccDes= 0.00D+00 IRadAn=         5 IDoV= 1 UseB2=F ITyADJ=14
 ICtDFT=  3500011 ScaDFX=  1.000000  1.000000  1.000000  1.000000
 FoFCou: FMM=F IPFlag=           0 FMFlag=      100000 FMFlg1=           0
         NFxFlg=           0 DoJE=T BraDBF=F KetDBF=T FulRan=T
         wScrn=  0.000000 ICntrl=       500 IOpCl=  0 I1Cent=   200000004 NGrid=           0
         NMat0=    1 NMatS0=      1 NMatT0=    0 NMatD0=    1 NMtDS0=    0 NMtDT0=    0
 Petite list used in FoFCou.
 Keep R1 ints in memory in canonical form, NReq=65139132.
 Requested convergence on RMS density matrix=1.00D-08 within 128 cycles.
 Requested convergence on MAX density matrix=1.00D-06.
 Requested convergence on             energy=1.00D-06.
 No special actions if energy rises.
 Inv3:  Mode=1 IEnd=     4642608.
 Iteration    1 A*A^-1 deviation from unit magnitude is 3.66D-15 for    374.
 Iteration    1 A*A^-1 deviation from orthogonality  is 3.13D-15 for    229     83.
 Iteration    1 A^-1*A deviation from unit magnitude is 3.33D-15 for    115.
 Iteration    1 A^-1*A deviation from orthogonality  is 1.44D-15 for   1046    102.
 Error on total polarization charges =  0.01942
 SCF Done:  E(RB3LYP) =  -2726.93668255     A.U. after   12 cycles
            NFock= 12  Conv=0.42D-08     -V/T= 2.0065
 SMD-CDS (non-electrostatic) energy       (kcal/mol) =      -2.94
 (included in total energy above)
 D1PCM: PCM CHGder 1st derivatives, ID1Alg=3 FixD1E=F DoIter=F DoCFld=F I1PDM=0.
 Calling FoFJK, ICntrl=      2127 FMM=F ISym2X=0 I1Cent= 0 IOpClX= 0 NMat=1 NMatS=1 NMatT=0.
 ***** Axes restored to original set *****
 -------------------------------------------------------------------
 Center     Atomic                   Forces (Hartrees/Bohr)
 Number     Number              X              Y              Z
 -------------------------------------------------------------------
      1        6           0.003056087   -0.009073962   -0.007391937
      2        1           0.000229908   -0.001901803   -0.000269308
      3        1           0.000544359   -0.002002667    0.004416249
      4        8          -0.004659581    0.007892550   -0.020371953
      5        1           0.000683906   -0.000140046    0.000317050
      6        6           0.001476206    0.024065712    0.002485382
      7        1          -0.002591288   -0.016416521    0.035933767
      8        1           0.009037528   -0.001343981   -0.003817068
      9        1          -0.007891051   -0.000216508   -0.006852263
     10       35           0.000113926   -0.000862775   -0.004449920
 -------------------------------------------------------------------
 Cartesian Forces:  Max     0.035933767 RMS     0.010093442

 GradGradGradGradGradGradGradGradGradGradGradGradGradGradGradGradGradGrad
 Berny optimization.
 Using GEDIIS/GDIIS optimizer.
 FormGI is forming the generalized inverse of G from B-inverse, IUseBI=4.
 Internal  Forces:  Max     0.032488796 RMS     0.008975277
 Search for a local minimum.
 Step number   3 out of a maximum of   48
 All quantities printed in internal units (Hartrees-Bohrs-Radians)
 Mixed Optimization -- RFO/linear search
 Update second derivatives using D2CorX and points    2    3
 ITU=  0  1  0
 Use linear search instead of GDIIS.
     Eigenvalues ---    0.00237   0.00499   0.01295   0.03329   0.03896
     Eigenvalues ---    0.04410   0.05586   0.05859   0.11997   0.12073
     Eigenvalues ---    0.14247   0.14346   0.15950   0.16160   0.18631
     Eigenvalues ---    0.23857   0.28500   0.35592   0.35627   0.37196
     Eigenvalues ---    0.37230   0.38925   0.43175   0.55435
 RFO step:  Lambda=-5.33370133D-03 EMin= 2.36816631D-03
 Quartic linear search produced a step of -0.46945.
 Iteration  1 RMS(Cart)=  0.11710612 RMS(Int)=  0.00364543
 Iteration  2 RMS(Cart)=  0.00448063 RMS(Int)=  0.00072797
 Iteration  3 RMS(Cart)=  0.00000364 RMS(Int)=  0.00072796
 Iteration  4 RMS(Cart)=  0.00000001 RMS(Int)=  0.00072796
 Variable       Old X    -DE/DX   Delta X   Delta X   Delta X     New X
                                 (Linear)    (Quad)   (Total)
    R1        2.06383   0.00123  -0.00534   0.00720   0.00186   2.06569
    R2        2.07766  -0.00084  -0.00967   0.00686  -0.00281   2.07485
    R3        2.78429  -0.02013  -0.02566  -0.01482  -0.04048   2.74381
    R4        2.88852  -0.00575   0.00678  -0.02232  -0.01554   2.87298
    R5        1.83277  -0.00051  -0.00583   0.00422  -0.00161   1.83116
    R6        2.19175  -0.03249  -0.05313  -0.02455  -0.07768   2.11407
    R7        2.11065  -0.00922  -0.02774   0.00531  -0.02243   2.08822
    R8        2.10747  -0.00891  -0.02675   0.00500  -0.02175   2.08572
    R9        4.88648   0.00437  -0.24082   0.20952  -0.03130   4.85518
    A1        1.87960  -0.00284   0.02317  -0.01539   0.00771   1.88731
    A2        1.80563   0.00587   0.01891   0.00321   0.02225   1.82788
    A3        1.91512   0.00474   0.01176   0.01277   0.02456   1.93968
    A4        1.92795   0.00150  -0.01885  -0.00073  -0.01897   1.90897
    A5        1.89963   0.00863   0.01742   0.01440   0.03250   1.93213
    A6        2.02924  -0.01739  -0.05059  -0.01539  -0.06546   1.96378
    A7        1.86942   0.00095   0.01305  -0.00798   0.00507   1.87449
    A8        2.08749  -0.02365  -0.05525  -0.08973  -0.14441   1.94308
    A9        1.88073   0.00901   0.00956   0.03616   0.04410   1.92484
   A10        1.85320   0.01141   0.01817   0.04530   0.06254   1.91574
   A11        1.86813   0.00519   0.01347   0.00618   0.02011   1.88824
   A12        1.89180   0.00362   0.00589   0.01081   0.01816   1.90996
   A13        1.87306  -0.00449   0.01208  -0.00217   0.00764   1.88071
   A14        2.60016   0.00604  -0.08891   0.06103  -0.02789   2.57227
    D1       -3.12086  -0.00022  -0.00714   0.00121  -0.00593  -3.12679
    D2       -1.11351   0.00024   0.02078  -0.01519   0.00602  -1.10749
    D3        1.06201  -0.00047  -0.00583  -0.00833  -0.01459   1.04742
    D4        0.97744   0.00187   0.01401   0.02624   0.04006   1.01750
    D5        3.11367  -0.00063   0.00089  -0.00001   0.00005   3.11372
    D6       -1.16704   0.00396   0.02951   0.03641   0.06709  -1.09995
    D7       -1.07530  -0.00245  -0.03364   0.02910  -0.00487  -1.08017
    D8        1.06093  -0.00495  -0.04675   0.00285  -0.04488   1.01605
    D9        3.06340  -0.00036  -0.01814   0.03928   0.02216   3.08556
   D10        3.01795   0.00159   0.01357   0.02972   0.04311   3.06106
   D11       -1.12900  -0.00092   0.00046   0.00348   0.00310  -1.12591
   D12        0.87347   0.00368   0.02907   0.03990   0.07013   0.94361
   D13        0.17650  -0.00050  -0.00876  -0.00558  -0.01415   0.16235
   D14       -1.96591  -0.00005   0.00611   0.00525   0.01054  -1.95537
   D15        2.30199   0.00072  -0.01868  -0.00078  -0.01883   2.28317
         Item               Value     Threshold  Converged?
 Maximum Force            0.032489     0.000450     NO 
 RMS     Force            0.008975     0.000300     NO 
 Maximum Displacement     0.400781     0.001800     NO 
 RMS     Displacement     0.118756     0.001200     NO 
 Predicted change in Energy=-5.152810D-03
 GradGradGradGradGradGradGradGradGradGradGradGradGradGradGradGradGradGrad

                          Input orientation:                          
 ---------------------------------------------------------------------
 Center     Atomic      Atomic             Coordinates (Angstroms)
 Number     Number       Type             X           Y           Z
 ---------------------------------------------------------------------
      1          6           0       -0.011035    0.021509   -0.160436
      2          1           0        0.888275   -0.523365   -0.459198
      3          1           0       -0.884401   -0.531297   -0.530789
      4          8           0        0.001217   -0.013506    1.291053
      5          1           0       -0.792022    0.450209    1.598812
      6          6           0       -0.000374    1.439480   -0.708706
      7          1           0        0.073798    1.443612   -1.824957
      8          1           0       -0.927831    1.967801   -0.422689
      9          1           0        0.850518    1.998196   -0.282077
     10         35           0        0.019037    0.081008   -4.002426
 ---------------------------------------------------------------------
                    Distance matrix (angstroms):
                    1          2          3          4          5
     1  C    0.000000
     2  H    1.093117   0.000000
     3  H    1.097965   1.774139   0.000000
     4  O    1.451962   2.027364   2.090821   0.000000
     5  H    1.971973   2.829602   2.346718   0.969007   0.000000
     6  C    1.520314   2.169035   2.167285   2.471883   2.632490
     7  H    2.190937   2.529361   2.548193   3.440636   3.668608
     8  H    2.167335   3.083095   2.501812   2.779500   2.531402
     9  H    2.159712   2.528055   3.077359   2.691281   2.938017
    10  Br   3.842569   3.698014   3.639147   5.294353   5.671683
                    6          7          8          9         10
     6  C    0.000000
     7  H    1.118720   0.000000
     8  H    1.105036   1.801218   0.000000
     9  H    1.103717   1.814204   1.784158   0.000000
    10  Br   3.562922   2.569253   4.155847   4.267079   0.000000
 Stoichiometry    C2H6BrO(1-)
 Framework group  C1[X(C2H6BrO)]
 Deg. of freedom    24
 Full point group                 C1      NOp   1
 Largest Abelian subgroup         C1      NOp   1
 Largest concise Abelian subgroup C1      NOp   1
                         Standard orientation:                         
 ---------------------------------------------------------------------
 Center     Atomic      Atomic             Coordinates (Angstroms)
 Number     Number       Type             X           Y           Z
 ---------------------------------------------------------------------
      1          6           0        2.064199   -0.375156   -0.023814
      2          1           0        1.718121   -0.900831   -0.917570
      3          1           0        1.673695   -0.903306    0.856010
      4          8           0        3.510314   -0.500641   -0.058443
      5          1           0        3.858662   -0.056587    0.729240
      6          6           0        1.605313    1.074244   -0.028153
      7          1           0        0.490476    1.147949   -0.085070
      8          1           0        1.938076    1.584208    0.893970
      9          1           0        2.052694    1.604793   -0.886383
     10         35           0       -1.766609   -0.076161    0.005404
 ---------------------------------------------------------------------
 Rotational constants (GHZ):          15.8984938           0.9149982           0.8765628
 Standard basis: 6-31+G(d,p) (6D, 7F)
 There are   121 symmetry adapted cartesian basis functions of A   symmetry.
 There are   121 symmetry adapted basis functions of A   symmetry.
   121 basis functions,   225 primitive gaussians,   121 cartesian basis functions
    31 alpha electrons       31 beta electrons
       nuclear repulsion energy       198.3954371289 Hartrees.
 NAtoms=   10 NActive=   10 NUniq=   10 SFac= 1.00D+00 NAtFMM=   60 NAOKFM=F Big=F
 Integral buffers will be    131072 words long.
 Raffenetti 2 integral format.
 Two-electron integral symmetry is turned on.
 ------------------------------------------------------------------------------
 Polarizable Continuum Model (PCM)
 =================================
 Model                : PCM.
 Atomic radii         : SMD-Coulomb.
 Polarization charges : Total charges.
 Charge compensation  : None.
 Solution method      : On-the-fly selection.
 Cavity type          : VdW (van der Waals Surface) (Alpha=1.000).
 Cavity algorithm     : GePol (No added spheres)
                        Default sphere list used, NSphG=   10.
                        Lebedev-Laikov grids with approx.  5.0 points / Ang**2.
                        Smoothing algorithm: York/Karplus (Gamma=1.0000).
                        Polarization charges: spherical gaussians, with
                                              point-specific exponents (IZeta= 3).
                        Self-potential: point-specific (ISelfS= 7).
                        Self-field    : sphere-specific E.n sum rule (ISelfD= 2).
 1st derivatives      : Analytical E(r).r(x)/FMM algorithm (CHGder, D1EAlg=3).
                        Cavity 1st derivative terms included.
 Solvent              : TetraHydroFuran, Eps=   7.425700 Eps(inf)=   1.974025
 ------------------------------------------------------------------------------
 Spheres list:
 ISph  on   Nord     Re0    Alpha      Xe            Ye            Ze
    1   C      1    1.8500  1.000      2.064199     -0.375156     -0.023814
    2   H      2    1.2000  1.000      1.718121     -0.900831     -0.917570
    3   H      3    1.2000  1.000      1.673695     -0.903306      0.856010
    4   O      4    2.2940  1.000      3.510314     -0.500641     -0.058443
    5   H      5    1.2000  1.000      3.858662     -0.056587      0.729240
    6   C      6    1.8500  1.000      1.605313      1.074244     -0.028153
    7   H      7    1.2000  1.000      0.490476      1.147949     -0.085070
    8   H      8    1.2000  1.000      1.938076      1.584208      0.893970
    9   H      9    1.2000  1.000      2.052694      1.604793     -0.886383
   10  Br     10    3.0600  1.000     -1.766609     -0.076161      0.005404
 ------------------------------------------------------------------------------
 ------------------------------------------------------------------------------
 Atomic radii for non-electrostatic terms: SMD-CDS.
 ------------------------------------------------------------------------------
 Nuclear repulsion after PCM non-electrostatic terms =      198.3907837028 Hartrees.
 One-electron integrals computed using PRISM.
 NBasis=   121 RedAO= T EigKep=  2.69D-04  NBF=   121
 NBsUse=   121 1.00D-06 EigRej= -1.00D+00 NBFU=   121
 Initial guess from the checkpoint file:  "/scratch/global/Gau-26031.chk"
 B after Tr=    -0.000000    0.000000    0.000000
         Rot=    0.999964   -0.006924    0.000012    0.004908 Ang=  -0.97 deg.
 ExpMin= 3.50D-02 ExpMax= 5.74D+05 ExpMxC= 5.74D+03 IAcc=3 IRadAn=         5 AccDes= 0.00D+00
 Harris functional with IExCor=  402 and IRadAn=       5 diagonalized for initial guess.
 HarFok:  IExCor=  402 AccDes= 0.00D+00 IRadAn=         5 IDoV= 1 UseB2=F ITyADJ=14
 ICtDFT=  3500011 ScaDFX=  1.000000  1.000000  1.000000  1.000000
 FoFCou: FMM=F IPFlag=           0 FMFlag=      100000 FMFlg1=           0
         NFxFlg=           0 DoJE=T BraDBF=F KetDBF=T FulRan=T
         wScrn=  0.000000 ICntrl=       500 IOpCl=  0 I1Cent=   200000004 NGrid=           0
         NMat0=    1 NMatS0=      1 NMatT0=    0 NMatD0=    1 NMtDS0=    0 NMtDT0=    0
 Petite list used in FoFCou.
 Keep R1 ints in memory in canonical form, NReq=65139132.
 Requested convergence on RMS density matrix=1.00D-08 within 128 cycles.
 Requested convergence on MAX density matrix=1.00D-06.
 Requested convergence on             energy=1.00D-06.
 No special actions if energy rises.
 Inv3:  Mode=1 IEnd=     4291248.
 Iteration    1 A*A^-1 deviation from unit magnitude is 2.78D-15 for    441.
 Iteration    1 A*A^-1 deviation from orthogonality  is 1.42D-15 for    236     41.
 Iteration    1 A^-1*A deviation from unit magnitude is 2.89D-15 for    541.
 Iteration    1 A^-1*A deviation from orthogonality  is 1.67D-15 for    940    241.
 Error on total polarization charges =  0.01928
 SCF Done:  E(RB3LYP) =  -2726.94305690     A.U. after   11 cycles
            NFock= 11  Conv=0.54D-08     -V/T= 2.0065
 SMD-CDS (non-electrostatic) energy       (kcal/mol) =      -2.92
 (included in total energy above)
 D1PCM: PCM CHGder 1st derivatives, ID1Alg=3 FixD1E=F DoIter=F DoCFld=F I1PDM=0.
 Calling FoFJK, ICntrl=      2127 FMM=F ISym2X=0 I1Cent= 0 IOpClX= 0 NMat=1 NMatS=1 NMatT=0.
 ***** Axes restored to original set *****
 -------------------------------------------------------------------
 Center     Atomic                   Forces (Hartrees/Bohr)
 Number     Number              X              Y              Z
 -------------------------------------------------------------------
      1        6          -0.000155189    0.000886007    0.002516172
      2        1          -0.000308839   -0.000036139   -0.000863706
      3        1           0.000968730   -0.000292240   -0.000890628
      4        8          -0.001372805    0.000178752   -0.003221128
      5        1           0.000835132   -0.000241821    0.000030569
      6        6           0.000953188    0.007333954   -0.004622941
      7        1          -0.001183678   -0.003163387    0.015562225
      8        1           0.002984979   -0.001181602   -0.000984267
      9        1          -0.002739677   -0.001340619   -0.002206300
     10       35           0.000018159   -0.002142904   -0.005319996
 -------------------------------------------------------------------
 Cartesian Forces:  Max     0.015562225 RMS     0.003700665

 GradGradGradGradGradGradGradGradGradGradGradGradGradGradGradGradGradGrad
 Berny optimization.
 Using GEDIIS/GDIIS optimizer.
 FormGI is forming the generalized inverse of G from B-inverse, IUseBI=4.
 Internal  Forces:  Max     0.010314955 RMS     0.002511549
 Search for a local minimum.
 Step number   4 out of a maximum of   48
 All quantities printed in internal units (Hartrees-Bohrs-Radians)
 Mixed Optimization -- RFO/linear search
 Update second derivatives using D2CorX and points    2    3    4
 DE= -6.37D-03 DEPred=-5.15D-03 R= 1.24D+00
 TightC=F SS=  1.41D+00  RLast= 2.48D-01 DXNew= 8.4853D-01 7.4349D-01
 Trust test= 1.24D+00 RLast= 2.48D-01 DXMaxT set to 7.43D-01
 ITU=  1  0  1  0
 Use linear search instead of GDIIS.
     Eigenvalues ---    0.00236   0.00499   0.01294   0.02999   0.04736
     Eigenvalues ---    0.04775   0.05222   0.05749   0.11147   0.11827
     Eigenvalues ---    0.13780   0.13993   0.14721   0.15998   0.18099
     Eigenvalues ---    0.25111   0.28449   0.34687   0.35629   0.35652
     Eigenvalues ---    0.37232   0.37450   0.41625   0.55490
 RFO step:  Lambda=-1.98633374D-03 EMin= 2.36209360D-03
 Quartic linear search produced a step of  0.18247.
 Iteration  1 RMS(Cart)=  0.04099320 RMS(Int)=  0.00058132
 Iteration  2 RMS(Cart)=  0.00061093 RMS(Int)=  0.00026923
 Iteration  3 RMS(Cart)=  0.00000016 RMS(Int)=  0.00026923
 Variable       Old X    -DE/DX   Delta X   Delta X   Delta X     New X
                                 (Linear)    (Quad)   (Total)
    R1        2.06569  -0.00000   0.00034   0.00119   0.00153   2.06722
    R2        2.07485  -0.00033  -0.00051   0.00144   0.00093   2.07578
    R3        2.74381  -0.00319  -0.00739  -0.00061  -0.00800   2.73581
    R4        2.87298  -0.00135  -0.00284  -0.00698  -0.00982   2.86316
    R5        1.83116  -0.00078  -0.00029  -0.00033  -0.00063   1.83053
    R6        2.11407  -0.01031  -0.01417  -0.01883  -0.03301   2.08107
    R7        2.08822  -0.00333  -0.00409  -0.00365  -0.00775   2.08047
    R8        2.08572  -0.00365  -0.00397  -0.00526  -0.00923   2.07649
    R9        4.85518   0.00565  -0.00571   0.20604   0.20033   5.05551
    A1        1.88731  -0.00039   0.00141  -0.01789  -0.01677   1.87054
    A2        1.82788   0.00039   0.00406   0.00313   0.00731   1.83519
    A3        1.93968  -0.00054   0.00448  -0.01173  -0.00740   1.93227
    A4        1.90897   0.00010  -0.00346   0.01094   0.00748   1.91645
    A5        1.93213  -0.00025   0.00593  -0.01207  -0.00648   1.92565
    A6        1.96378   0.00069  -0.01194   0.02707   0.01510   1.97888
    A7        1.87449   0.00053   0.00093   0.00140   0.00233   1.87682
    A8        1.94308  -0.00502  -0.02635  -0.02141  -0.04763   1.89545
    A9        1.92484   0.00151   0.00805   0.00696   0.01438   1.93922
   A10        1.91574   0.00201   0.01141   0.00900   0.01997   1.93571
   A11        1.88824   0.00132   0.00367   0.00140   0.00514   1.89338
   A12        1.90996   0.00106   0.00331   0.00159   0.00534   1.91530
   A13        1.88071  -0.00076   0.00139   0.00311   0.00364   1.88435
   A14        2.57227   0.00485  -0.00509   0.05607   0.05098   2.62326
    D1       -3.12679  -0.00007  -0.00108  -0.00423  -0.00522  -3.13201
    D2       -1.10749  -0.00028   0.00110  -0.01825  -0.01738  -1.12487
    D3        1.04742  -0.00004  -0.00266  -0.00696  -0.00948   1.03795
    D4        1.01750  -0.00035   0.00731   0.01284   0.02017   1.03767
    D5        3.11372  -0.00097   0.00001   0.00524   0.00509   3.11881
    D6       -1.09995   0.00025   0.01224   0.01885   0.03160  -1.06835
    D7       -1.08017   0.00067  -0.00089   0.05120   0.05009  -1.03008
    D8        1.01605   0.00005  -0.00819   0.04360   0.03501   1.05106
    D9        3.08556   0.00128   0.00404   0.05721   0.06152  -3.13610
   D10        3.06106   0.00022   0.00787   0.02650   0.03426   3.09532
   D11       -1.12591  -0.00040   0.00057   0.01890   0.01918  -1.10672
   D12        0.94361   0.00083   0.01280   0.03251   0.04569   0.98930
   D13        0.16235  -0.00011  -0.00258  -0.00222  -0.00481   0.15754
   D14       -1.95537   0.00027   0.00192   0.00155   0.00325  -1.95212
   D15        2.28317  -0.00015  -0.00344  -0.00383  -0.00704   2.27613
         Item               Value     Threshold  Converged?
 Maximum Force            0.010315     0.000450     NO 
 RMS     Force            0.002512     0.000300     NO 
 Maximum Displacement     0.124776     0.001800     NO 
 RMS     Displacement     0.040871     0.001200     NO 
 Predicted change in Energy=-1.229278D-03
 GradGradGradGradGradGradGradGradGradGradGradGradGradGradGradGradGradGrad

                          Input orientation:                          
 ---------------------------------------------------------------------
 Center     Atomic      Atomic             Coordinates (Angstroms)
 Number     Number       Type             X           Y           Z
 ---------------------------------------------------------------------
      1          6           0       -0.004799    0.038082   -0.152483
      2          1           0        0.900349   -0.496137   -0.455788
      3          1           0       -0.860740   -0.516040   -0.561046
      4          8           0       -0.019471   -0.032988    1.293428
      5          1           0       -0.816243    0.424698    1.600038
      6          6           0        0.006497    1.456609   -0.684680
      7          1           0        0.065544    1.419006   -1.783707
      8          1           0       -0.912522    1.993216   -0.402691
      9          1           0        0.862730    2.018192   -0.286030
     10         35           0       -0.004163    0.029010   -4.068455
 ---------------------------------------------------------------------
                    Distance matrix (angstroms):
                    1          2          3          4          5
     1  C    0.000000
     2  H    1.093927   0.000000
     3  H    1.098458   1.764344   0.000000
     4  O    1.447730   2.029860   2.092879   0.000000
     5  H    1.969579   2.832145   2.357382   0.968675   0.000000
     6  C    1.515118   2.159764   2.158409   2.476386   2.638499
     7  H    2.138409   2.475488   2.469272   3.403568   3.635371
     8  H    2.170049   3.079967   2.514780   2.789241   2.545671
     9  H    2.165935   2.520334   3.077062   2.735015   2.985870
    10  Br   3.915982   3.761021   3.651400   5.362263   5.740022
                    6          7          8          9         10
     6  C    0.000000
     7  H    1.101254   0.000000
     8  H    1.100936   1.787047   0.000000
     9  H    1.098832   1.799324   1.779257   0.000000
    10  Br   3.672612   2.675260   4.256881   4.360629   0.000000
 Stoichiometry    C2H6BrO(1-)
 Framework group  C1[X(C2H6BrO)]
 Deg. of freedom    24
 Full point group                 C1      NOp   1
 Largest Abelian subgroup         C1      NOp   1
 Largest concise Abelian subgroup C1      NOp   1
                         Standard orientation:                         
 ---------------------------------------------------------------------
 Center     Atomic      Atomic             Coordinates (Angstroms)
 Number     Number       Type             X           Y           Z
 ---------------------------------------------------------------------
      1          6           0        2.104407   -0.357978   -0.041833
      2          1           0        1.751760   -0.854855   -0.950365
      3          1           0        1.665518   -0.892644    0.811464
      4          8           0        3.541069   -0.536598   -0.046255
      5          1           0        3.890064   -0.114692    0.752826
      6          6           0        1.679340    1.096216   -0.026971
      7          1           0        0.579964    1.141325   -0.072756
      8          1           0        2.011069    1.596856    0.895730
      9          1           0        2.108898    1.639063   -0.880334
     10         35           0       -1.801095   -0.075763    0.006466
 ---------------------------------------------------------------------
 Rotational constants (GHZ):          15.3840951           0.8848518           0.8473659
 Standard basis: 6-31+G(d,p) (6D, 7F)
 There are   121 symmetry adapted cartesian basis functions of A   symmetry.
 There are   121 symmetry adapted basis functions of A   symmetry.
   121 basis functions,   225 primitive gaussians,   121 cartesian basis functions
    31 alpha electrons       31 beta electrons
       nuclear repulsion energy       196.1185131349 Hartrees.
 NAtoms=   10 NActive=   10 NUniq=   10 SFac= 1.00D+00 NAtFMM=   60 NAOKFM=F Big=F
 Integral buffers will be    131072 words long.
 Raffenetti 2 integral format.
 Two-electron integral symmetry is turned on.
 ------------------------------------------------------------------------------
 Polarizable Continuum Model (PCM)
 =================================
 Model                : PCM.
 Atomic radii         : SMD-Coulomb.
 Polarization charges : Total charges.
 Charge compensation  : None.
 Solution method      : On-the-fly selection.
 Cavity type          : VdW (van der Waals Surface) (Alpha=1.000).
 Cavity algorithm     : GePol (No added spheres)
                        Default sphere list used, NSphG=   10.
                        Lebedev-Laikov grids with approx.  5.0 points / Ang**2.
                        Smoothing algorithm: York/Karplus (Gamma=1.0000).
                        Polarization charges: spherical gaussians, with
                                              point-specific exponents (IZeta= 3).
                        Self-potential: point-specific (ISelfS= 7).
                        Self-field    : sphere-specific E.n sum rule (ISelfD= 2).
 1st derivatives      : Analytical E(r).r(x)/FMM algorithm (CHGder, D1EAlg=3).
                        Cavity 1st derivative terms included.
 Solvent              : TetraHydroFuran, Eps=   7.425700 Eps(inf)=   1.974025
 ------------------------------------------------------------------------------
 Spheres list:
 ISph  on   Nord     Re0    Alpha      Xe            Ye            Ze
    1   C      1    1.8500  1.000      2.104407     -0.357978     -0.041833
    2   H      2    1.2000  1.000      1.751760     -0.854855     -0.950365
    3   H      3    1.2000  1.000      1.665518     -0.892644      0.811464
    4   O      4    2.2940  1.000      3.541069     -0.536598     -0.046255
    5   H      5    1.2000  1.000      3.890064     -0.114692      0.752826
    6   C      6    1.8500  1.000      1.679340      1.096216     -0.026971
    7   H      7    1.2000  1.000      0.579964      1.141325     -0.072756
    8   H      8    1.2000  1.000      2.011069      1.596856      0.895730
    9   H      9    1.2000  1.000      2.108898      1.639063     -0.880334
   10  Br     10    3.0600  1.000     -1.801095     -0.075763      0.006466
 ------------------------------------------------------------------------------
 ------------------------------------------------------------------------------
 Atomic radii for non-electrostatic terms: SMD-CDS.
 ------------------------------------------------------------------------------
 Nuclear repulsion after PCM non-electrostatic terms =      196.1138179339 Hartrees.
 One-electron integrals computed using PRISM.
 NBasis=   121 RedAO= T EigKep=  2.65D-04  NBF=   121
 NBsUse=   121 1.00D-06 EigRej= -1.00D+00 NBFU=   121
 Initial guess from the checkpoint file:  "/scratch/global/Gau-26031.chk"
 B after Tr=     0.000000   -0.000000   -0.000000
         Rot=    0.999990   -0.003971    0.000163    0.002137 Ang=  -0.52 deg.
 ExpMin= 3.50D-02 ExpMax= 5.74D+05 ExpMxC= 5.74D+03 IAcc=3 IRadAn=         5 AccDes= 0.00D+00
 Harris functional with IExCor=  402 and IRadAn=       5 diagonalized for initial guess.
 HarFok:  IExCor=  402 AccDes= 0.00D+00 IRadAn=         5 IDoV= 1 UseB2=F ITyADJ=14
 ICtDFT=  3500011 ScaDFX=  1.000000  1.000000  1.000000  1.000000
[...]
 -------------------------------------------------------------------
 Cartesian Forces:  Max     0.000139044 RMS     0.000044374
 FormGI is forming the generalized inverse of G from B-inverse, IUseBI=4.

 GradGradGradGradGradGradGradGradGradGradGradGradGradGradGradGradGradGrad
 Berny optimization.
 Internal  Forces:  Max     0.000010687 RMS     0.000002999
 Search for a local minimum.
 Step number   1 out of a maximum of    2
 All quantities printed in internal units (Hartrees-Bohrs-Radians)
 Second derivative matrix not updated -- analytic derivatives used.
 ITU=  0
     Eigenvalues ---   -0.00000   0.00264   0.00306   0.00329   0.01268
     Eigenvalues ---    0.03810   0.04183   0.04866   0.05869   0.08596
     Eigenvalues ---    0.10018   0.11166   0.12799   0.14547   0.16384
     Eigenvalues ---    0.23893   0.29257   0.31387   0.32882   0.33155
     Eigenvalues ---    0.33407   0.33934   0.35880   0.51498
 Eigenvalue     1 is  -1.92D-06 should be greater than     0.000000 Eigenvector:
                          D13       D15       D14       A14       R9
   1                    0.57733   0.57729   0.57726  -0.01320   0.00319
                          D12       D9        D6        D11       D8
   1                   -0.00120  -0.00118  -0.00111  -0.00110  -0.00109
 Quadratic step=6.610D-01 exceeds max=3.000D-01 adjusted using Lamda=-2.314D-06.
 Angle between NR and scaled steps=   0.19 degrees.
 Angle between quadratic step and forces=  85.92 degrees.
 Linear search not attempted -- first point.
 Iteration  1 RMS(Cart)=  0.00244280 RMS(Int)=  0.01878115
 Iteration  2 RMS(Cart)=  0.00046068 RMS(Int)=  0.00000436
 Iteration  3 RMS(Cart)=  0.00001493 RMS(Int)=  0.00000000
 Iteration  4 RMS(Cart)=  0.00000000 RMS(Int)=  0.00000000
 Variable       Old X    -DE/DX   Delta X   Delta X   Delta X     New X
                                 (Linear)    (Quad)   (Total)
    R1        2.06836  -0.00000   0.00000  -0.00001  -0.00001   2.06835
    R2        2.07816  -0.00000   0.00000  -0.00002  -0.00002   2.07814
    R3        2.72269   0.00001   0.00000   0.00003   0.00003   2.72273
    R4        2.87325  -0.00000   0.00000  -0.00001  -0.00001   2.87324
    R5        1.82974   0.00000   0.00000  -0.00000  -0.00000   1.82974
    R6        2.07527   0.00000   0.00000   0.00000   0.00000   2.07527
    R7        2.07579   0.00000   0.00000  -0.00001  -0.00001   2.07578
    R8        2.07209   0.00000   0.00000   0.00001   0.00001   2.07210
    R9        5.56573   0.00000   0.00000   0.00184   0.00184   5.56757
    A1        1.87640  -0.00000   0.00000   0.00001   0.00001   1.87641
    A2        1.83407  -0.00000   0.00000  -0.00002  -0.00002   1.83405
    A3        1.93171   0.00000   0.00000  -0.00001  -0.00001   1.93170
    A4        1.91555   0.00000   0.00000   0.00004   0.00004   1.91558
    A5        1.92602   0.00000   0.00000   0.00003   0.00003   1.92605
    A6        1.97567  -0.00000   0.00000  -0.00004  -0.00004   1.97563
    A7        1.88145   0.00000   0.00000   0.00002   0.00002   1.88146
    A8        1.92674  -0.00001   0.00000  -0.00008  -0.00008   1.92666
    A9        1.93488   0.00000   0.00000   0.00008   0.00008   1.93496
   A10        1.93427   0.00000   0.00000  -0.00007  -0.00007   1.93420
   A11        1.88183   0.00000   0.00000  -0.00001  -0.00001   1.88182
   A12        1.89621   0.00000   0.00000   0.00007   0.00007   1.89629
   A13        1.88842  -0.00000   0.00000   0.00001   0.00001   1.88843
   A14        3.13426  -0.00001   0.00000  -0.00457  -0.00457   3.12969
    D1        3.12017   0.00000   0.00000   0.00067   0.00067   3.12085
    D2       -1.15007   0.00000   0.00000   0.00069   0.00069  -1.14938
    D3        1.01022   0.00000   0.00000   0.00072   0.00072   1.01095
    D4        1.06866  -0.00000   0.00000  -0.00057  -0.00057   1.06809
    D5       -3.13039  -0.00000   0.00000  -0.00058  -0.00058  -3.13097
    D6       -1.03307   0.00000   0.00000  -0.00056  -0.00056  -1.03364
    D7       -1.00624  -0.00000   0.00000  -0.00060  -0.00060  -1.00683
    D8        1.07790  -0.00000   0.00000  -0.00061  -0.00061   1.07729
    D9       -3.10797   0.00000   0.00000  -0.00059  -0.00059  -3.10856
   D10        3.12240  -0.00000   0.00000  -0.00063  -0.00063   3.12177
   D11       -1.07665  -0.00000   0.00000  -0.00065  -0.00065  -1.07729
   D12        1.02067  -0.00000   0.00000  -0.00063  -0.00063   1.02004
   D13        0.83335   0.00000   0.00000   0.17327   0.17327   1.00662
   D14       -1.28262   0.00000   0.00000   0.17323   0.17323  -1.10940
   D15        2.95775  -0.00000   0.00000   0.17318   0.17318   3.13093
         Item               Value     Threshold  Converged?
 Maximum Force            0.000011     0.000450     YES
 RMS     Force            0.000003     0.000300     YES
 Maximum Displacement     0.008077     0.001800     NO 
 RMS     Displacement     0.002437     0.001200     NO 
 Predicted change in Energy=-4.748513D-07
                           ----------------------------
                           ! Non-Optimized Parameters !
                           ! (Angstroms and Degrees)  !
 --------------------------                            --------------------------
 ! Name  Definition              Value          Derivative Info.                !
 --------------------------------------------------------------------------------
 ! R1    R(1,2)                  1.0945         -DE/DX =    0.0                 !
 ! R2    R(1,3)                  1.0997         -DE/DX =    0.0                 !
 ! R3    R(1,4)                  1.4408         -DE/DX =    0.0                 !
 ! R4    R(1,6)                  1.5205         -DE/DX =    0.0                 !
 ! R5    R(4,5)                  0.9683         -DE/DX =    0.0                 !
 ! R6    R(6,7)                  1.0982         -DE/DX =    0.0                 !
 ! R7    R(6,8)                  1.0985         -DE/DX =    0.0                 !
 ! R8    R(6,9)                  1.0965         -DE/DX =    0.0                 !
 ! R9    R(7,10)                 2.9462         -DE/DX =    0.0                 !
 ! A1    A(2,1,3)              107.5105         -DE/DX =    0.0                 !
 ! A2    A(2,1,4)              105.0832         -DE/DX =    0.0                 !
 ! A3    A(2,1,6)              110.6784         -DE/DX =    0.0                 !
 ! A4    A(3,1,4)              109.7549         -DE/DX =    0.0                 !
 ! A5    A(3,1,6)              110.3547         -DE/DX =    0.0                 !
 ! A6    A(4,1,6)              113.1953         -DE/DX =    0.0                 !
 ! A7    A(1,4,5)              107.7999         -DE/DX =    0.0                 !
 ! A8    A(1,6,7)              110.3897         -DE/DX =    0.0                 !
 ! A9    A(1,6,8)              110.8651         -DE/DX =    0.0                 !
 ! A10   A(1,6,9)              110.8217         -DE/DX =    0.0                 !
 ! A11   A(7,6,8)              107.8203         -DE/DX =    0.0                 !
 ! A12   A(7,6,9)              108.6492         -DE/DX =    0.0                 !
 ! A13   A(8,6,9)              108.1988         -DE/DX =    0.0                 !
 ! A14   A(6,7,10)             179.3181         -DE/DX =    0.0                 !
 ! D1    D(2,1,4,5)            178.8113         -DE/DX =    0.0                 !
 ! D2    D(3,1,4,5)            -65.8549         -DE/DX =    0.0                 !
 ! D3    D(6,1,4,5)             57.9229         -DE/DX =    0.0                 !
 ! D4    D(2,1,6,7)             61.1972         -DE/DX =    0.0                 !
 ! D5    D(2,1,6,8)           -179.3913         -DE/DX =    0.0                 !
 ! D6    D(2,1,6,9)            -59.223          -DE/DX =    0.0                 !
 ! D7    D(3,1,6,7)            -57.6874         -DE/DX =    0.0                 !
 ! D8    D(3,1,6,8)             61.7241         -DE/DX =    0.0                 !
 ! D9    D(3,1,6,9)           -178.1075         -DE/DX =    0.0                 !
 ! D10   D(4,1,6,7)            178.8642         -DE/DX =    0.0                 !
 ! D11   D(4,1,6,8)            -61.7243         -DE/DX =    0.0                 !
 ! D12   D(4,1,6,9)             58.4441         -DE/DX =    0.0                 !
 ! D13   D(1,6,7,10)            57.6752         -DE/DX =    0.0                 !
 ! D14   D(8,6,7,10)           -63.5637         -DE/DX =    0.0                 !
 ! D15   D(9,6,7,10)           179.3892         -DE/DX =    0.0                 !
 --------------------------------------------------------------------------------
 GradGradGradGradGradGradGradGradGradGradGradGradGradGradGradGradGradGrad


 ----------------------------------------------------------------------

 Electric dipole moment (input orientation):
 (Debye = 10**-18 statcoulomb cm , SI units = C m)
                  (au)            (Debye)         (10**-30 SI)
   Tot        0.326534D+01      0.829967D+01      0.276847D+02
   x         -0.624030D+00     -0.158613D+01     -0.529075D+01
   y          0.236253D+00      0.600495D+00      0.200304D+01
   z          0.319644D+01      0.812454D+01      0.271005D+02

 Dipole polarizability, Alpha (input orientation).
 (esu units = cm**3 , SI units = C**2 m**2 J**-1)
 Alpha(0;0):
               (au)            (10**-24 esu)      (10**-40 SI)
   iso        0.755252D+02      0.111917D+02      0.124524D+02
   aniso      0.155851D+02      0.230947D+01      0.256964D+01
   xx         0.686391D+02      0.101713D+02      0.113171D+02
   yx        -0.350447D+00     -0.519308D-01     -0.577808D-01
   yy         0.725850D+02      0.107560D+02      0.119676D+02
   zx        -0.839008D+00     -0.124328D+00     -0.138334D+00
   zy         0.195659D+01      0.289937D+00      0.322598D+00
   zz         0.853515D+02      0.126478D+02      0.140726D+02

 ----------------------------------------------------------------------

 Dipole orientation:
     6          0.00817751         -0.04083920          0.06091117
     1          1.62164711         -1.05795445         -0.73927040
     1         -1.68660417         -1.19689425         -0.27073860
     8          0.51545062          0.10332659          2.73204212
     1         -0.85714609          1.02752060          3.51294141
     6         -0.28192740          2.53592332         -1.17670394
     1         -0.62835820          2.32574730         -3.21202942
     1         -1.88688369          3.57046292         -0.36260774
     1          1.42642125          3.67783145         -0.90994075
    35         -1.58594083          1.73391734         -8.66272714

 Electric dipole moment (dipole orientation):
 (Debye = 10**-18 statcoulomb cm , SI units = C m)
                  (au)            (Debye)         (10**-30 SI)
   Tot        0.326534D+01      0.829967D+01      0.276847D+02
   x          0.000000D+00      0.000000D+00      0.000000D+00
   y          0.000000D+00      0.000000D+00      0.000000D+00
   z          0.326534D+01      0.829967D+01      0.276847D+02

 Dipole polarizability, Alpha (dipole orientation).
 (esu units = cm**3 , SI units = C**2 m**2 J**-1)
 Alpha(0;0):
               (au)            (10**-24 esu)      (10**-40 SI)
   iso        0.755252D+02      0.111917D+02      0.124524D+02
   aniso      0.155851D+02      0.230947D+01      0.256964D+01
   xx         0.689353D+02      0.102152D+02      0.113659D+02
   yx        -0.116267D+00     -0.172290D-01     -0.191698D-01
   yy         0.723652D+02      0.107234D+02      0.119314D+02
   zx         0.236898D+01      0.351047D+00      0.390592D+00
   zy         0.105035D+01      0.155646D+00      0.173180D+00
   zz         0.852751D+02      0.126365D+02      0.140600D+02

 ----------------------------------------------------------------------
 Unable to Open any file for archive entry.
 1\1\GINC-N7\Freq\RB3LYP\6-31+G(d,p)\C2H6Br1O1(1-)\CTRUJILLO\16-Sep-202
 1\0\\#N Geom=AllCheck Guess=TCheck SCRF=Check GenChk RB3LYP/6-31+G(d,p
 ) Freq\\br(-)...H3C-br\\-1,1\C,-0.0020634333,-0.0191916745,0.033943254
 1\H,0.9131514934,-0.5806728008,-0.1784480765\H,-0.8530863582,-0.648295
 5867,-0.2649857671\O,-0.0081774383,0.1610405951,1.4633992532\H,-0.7966
 739245,0.6736323572,1.6937191732\C,-0.0180601732,1.292308264,-0.735149
 3684\H,0.0070542984,1.1021749906,-1.8164578777\H,-0.9301959468,1.86354
 97953,-0.5153562878\H,0.8465192263,1.9115116166,-0.467918654\Br,0.0587
 137163,0.5775898232,-4.7141601389\\Version=ES64L-G16RevC.01\State=1-A\
 HF=-2726.9463781\RMSD=8.885e-10\RMSF=4.437e-05\ZeroPoint=0.0802312\The
 rmal=0.0868956\ETot=-2726.8594825\HTot=-2726.8585383\GTot=-2726.899590
 5\Dipole=-0.6240298,0.2362528,3.1964385\DipoleDeriv=0.4057446,0.048574
 1,-0.0475001,0.0439702,0.4796245,-0.0081147,0.0076033,-0.0245495,1.121
 3501,-0.1038787,0.1332211,0.0418336,0.1038605,-0.0368183,-0.0163846,0.
 0013214,0.0134094,0.001271,-0.113601,-0.1619222,-0.0879953,-0.1292092,
 -0.0959583,-0.0472621,-0.028353,-0.028682,-0.0718334,-0.4576054,-0.125
 5743,0.1287379,-0.1260031,-0.6424189,-0.0428747,0.0370165,0.0209506,-1
 .2705665,0.224794,0.1148494,-0.0455667,0.1167037,0.3375377,-0.0279322,
 -0.049749,-0.000996,0.3191243,0.1711827,-0.0111947,-0.0060665,-0.00534
 ,-0.0128804,0.1482746,0.0265806,0.0791766,-0.2522493,0.0878568,-0.0006
 182,0.0029835,-0.0018338,0.0441019,0.0021323,0.0001977,0.024736,0.1309
 159,-0.1332154,0.1368838,0.074691,0.0959696,-0.0367831,0.0098127,0.070
 3732,-0.031234,0.0604136,-0.0996563,-0.136884,-0.0636426,-0.0997932,-0
 .0519684,0.0025892,-0.0678937,-0.0399569,0.0646844,-0.9816214,0.002665
 1,0.0025251,0.0016754,-0.9844368,-0.0202404,0.002903,-0.0128542,-1.103
 1102\Polar=68.6390989,-0.3504466,72.5849781,-0.8390077,1.9565909,85.35
 1539\Quadrupole=9.2645702,7.6757139,-16.9402842,-0.4337255,-4.4510294,
 3.3683107\PG=C01 [X(C2H6Br1O1)]\NImag=0\\0.62364328,-0.01965192,0.5356
 4000,-0.00265521,0.02791622,0.42264130,-0.24244446,0.11187923,0.039702
 84,0.25417032,0.10875228,-0.11747808,-0.02370929,-0.12226256,0.1252680
 2,0.02988502,-0.01939109,-0.05233489,-0.04476364,0.02693856,0.07317713
 ,-0.20962286,-0.10841943,-0.04448467,-0.02049006,-0.01531279,-0.005806
 56,0.21773461,-0.10693979,-0.13123185,-0.03147923,0.01214714,0.0102485
 4,0.00428819,0.12079210,0.13959340,-0.04103254,-0.03254874,-0.05895337
 ,0.00353498,0.00354081,0.00358569,0.05346939,0.03801996,0.07995883,-0.
 08441806,0.01399604,0.01290507,0.00230067,0.00484691,0.03377538,0.0075
 5456,-0.00185055,-0.02666537,0.41295276,0.01039807,-0.07228842,-0.0334
 6276,0.00032437,-0.00156174,-0.02204278,0.00144263,0.00107997,-0.02234
 952,-0.23430520,0.20717870,-0.02361498,-0.00602351,-0.19205027,0.00344
 929,-0.00460757,-0.02107461,-0.00358604,-0.00796549,-0.03145392,-0.076
 50076,0.08485600,0.34581009,-0.00156849,0.00054831,-0.00387841,0.00232
 430,-0.00035590,0.00053273,0.00101773,-0.00052002,-0.00141165,-0.34441
 524,0.22111749,0.09891082,0.34223628,0.00518575,-0.00384125,0.00026875
 ,-0.00127504,0.00070922,-0.00111413,0.00066683,-0.00026501,0.00084728,
 0.21611165,-0.14366121,-0.06772542,-0.21933986,0.14537872,0.03690887,-
 0.02456376,-0.01580842,-0.00056000,-0.00095058,-0.00724119,-0.00027504
 ,-0.00032250,0.00116567,0.05691079,-0.04201095,-0.06121165,-0.09258136
 ,0.06676020,0.08086519,-0.08364055,0.00157523,-0.00173006,0.00124042,0
 .02462875,-0.01463234,0.00087802,-0.02423043,0.01314616,0.00324163,0.0
 0088346,0.00194117,0.00088770,-0.00206054,0.00093999,0.56535838,0.0012
 6507,-0.18542359,0.05268787,-0.00105647,-0.01474876,0.00886883,0.00138
 823,-0.01665953,0.01005724,0.00115445,0.00902775,-0.00413524,-0.001571
 65,0.00217626,0.00017291,0.00481027,0.50496358,0.00117785,0.03943816,-
 0.09393075,-0.00075646,-0.00337588,0.00405670,0.00009575,-0.00475883,0
 .00574853,-0.00007281,0.03282647,-0.04308083,-0.00183872,0.00105685,0.
 00224587,0.00242978,0.04333967,0.54804649,-0.00230372,-0.00019072,-0.0
 0023013,0.00006900,-0.00022662,0.00013498,0.00005614,0.00012646,-0.000
 18278,0.00148412,0.00018456,-0.00020461,0.00013246,0.00016308,-0.00055
 588,-0.04927399,0.00068619,0.00605185,0.05043102,-0.00105231,0.0100252
 8,0.02550144,0.00044052,0.00081575,-0.00068815,-0.00049822,0.00067011,
 -0.00090402,-0.00005208,-0.00524481,0.00762830,0.00046345,-0.00056095,
 -0.00033600,0.00074168,-0.05964650,-0.04651329,-0.00121648,0.06171489,
 0.00031987,-0.00451948,-0.01385537,-0.00023934,-0.00012202,0.00062514,
 0.00018256,0.00001811,0.00074162,0.00039265,0.00306312,-0.00138625,-0.
 00049157,0.00013810,0.00038136,0.00611009,-0.04508470,-0.30029507,-0.0
 0657486,0.04749102,0.32180869,-0.00015284,-0.00053907,0.00080542,0.001
 70963,0.00017982,0.00028573,0.00110376,0.00040144,-0.00054040,0.000992
 66,-0.00083884,-0.00142104,-0.00038175,0.00069879,-0.00064465,-0.22670
 837,0.10854851,0.04434232,-0.00036537,-0.00054342,-0.00009508,0.243575
 49,0.02690664,-0.01667931,-0.00793611,-0.00040847,-0.00459010,0.003800
 45,-0.00040204,0.00131831,-0.00052337,-0.00136460,0.00200289,-0.001202
 95,-0.00024489,0.00027113,0.00105465,0.10726844,-0.11365515,-0.0264324
 3,0.00388572,-0.00315982,-0.00059945,-0.12093785,0.12457348,-0.0154199
 7,0.01033873,0.00108623,-0.00011949,0.00318351,-0.00105821,0.00025665,
 -0.00111432,0.00020275,-0.00079881,-0.00037701,0.00299700,0.00060287,-
 0.00027146,-0.00041895,0.04456401,-0.02824160,-0.05768642,0.02713597,-
 0.01581584,-0.00357099,-0.04899729,0.02732043,0.05809735,0.00071842,0.
 00082491,-0.00036005,0.00107470,-0.00021059,0.00055847,0.00169828,0.00
 000711,-0.00030105,0.00024303,0.00078403,0.00097070,-0.00021478,-0.000
 13680,-0.00012031,-0.21301097,-0.11512588,-0.05156773,0.00139551,0.001
 82608,0.00038928,-0.01984262,-0.01465890,-0.00696091,0.22788676,-0.024
 87922,-0.01832114,-0.00967779,0.00028238,0.00129797,-0.00063353,0.0002
 5891,-0.00482883,0.00386228,0.00144463,0.00317066,-0.00050733,-0.00005
 163,-0.00017015,0.00013880,-0.11344592,-0.12703967,-0.03557209,-0.0033
 7025,-0.00322018,-0.00058037,0.01297958,0.00991159,0.00496279,0.126718
 09,0.13919105,0.01435595,0.01106049,0.00248967,-0.00016181,-0.00101017
 ,0.00030211,0.00009117,0.00318564,-0.00097501,-0.00004597,-0.00120042,
 0.00269805,0.00031426,0.00009662,-0.00019272,-0.05278436,-0.03819279,-
 0.06363600,-0.02567113,-0.01687363,-0.00431565,0.00594015,0.00468287,0
 .00099586,0.05764685,0.03819507,0.06333485,-0.00021073,-0.00002259,-0.
 00007480,0.00004546,-0.00003930,0.00003022,0.00006981,0.00006655,-0.00
 001674,0.00006385,0.00000942,0.00005544,-0.00001821,-0.00001387,-0.000
 02241,0.00102772,-0.00009872,0.00013817,-0.00162518,-0.00010921,0.0000
 0640,0.00006941,-0.00004405,-0.00026304,0.00005166,0.00006342,0.000314
 90,0.00052619,0.00001543,-0.00040165,-0.00010909,-0.00007110,0.0000391
 8,-0.00002636,0.00008377,0.00007490,-0.00000191,0.00001875,0.00029621,
 -0.00031679,-0.00004530,-0.00003676,0.00005723,-0.00017096,0.00100561,
 -0.00000863,-0.00004195,-0.00139377,0.00019567,0.00005105,0.00000697,0
 .00001476,-0.00002805,0.00000870,0.00005631,0.00018836,0.00040059,0.00
 007513,-0.00170705,0.00071587,-0.00008637,0.00011263,-0.00003786,0.000
 05679,0.00012848,-0.00002079,0.00009983,0.00069784,-0.00124761,-0.0001
 5897,-0.00005679,0.00021484,0.00001555,0.00052780,-0.00146853,0.000096
 59,0.00051018,-0.00013346,0.00032485,-0.00016408,-0.00064462,-0.000255
 24,-0.00018784,-0.00070116,-0.00016815,0.00013882,0.00332333\\0.000001
 58,0.00000429,0.00001284,0.00000217,-0.00000016,-0.00000107,-0.0000003
 7,-0.00000313,-0.00000436,-0.00000961,-0.00001114,-0.00000805,-0.00000
 426,-0.00000403,-0.00000292,0.00009521,-0.00010039,0.00001411,-0.00012
 809,0.00013904,-0.00002570,-0.00000076,-0.00000160,0.00000201,-0.00000
 185,0.00000073,0.00000404,0.00004597,-0.00002361,0.00000910\\\@
 The archive entry for this job was punched.


 TRUST EVERYONE, BUT CUT THE CARDS.
 Job cpu time:       0 days  0 hours 10 minutes 15.1 seconds.
 Elapsed time:       0 days  0 hours  0 minutes 16.3 seconds.
 File lengths (MBytes):  RWF=     60 Int=      0 D2E=      0 Chk=      6 Scr=      1
 Normal termination of Gaussian 16 at Thu Sep 16 12:29:54 2021.
